/*--------------------------------*- C++ -*----------------------------------*\
| =========                 |                                                 |
| \\      /  F ield         | OpenFOAM: The Open Source CFD Toolbox           |
|  \\    /   O peration     | Version:  v2012                                 |
|   \\  /    A nd           | Website:  www.openfoam.com                      |
|    \\/     M anipulation  |                                                 |
\*---------------------------------------------------------------------------*/
FoamFile
{
    version     2.0;
    format      ascii;
    class       volScalarField;
    location    "0";
    object      Phi;
}
// * * * * * * * * * * * * * * * * * * * * * * * * * * * * * * * * * * * * * //

dimensions      [0 2 -1 0 0 0 0];


internalField   nonuniform List<scalar> 
1080
(
0.2983333037
0.2983333037
0.2983333037
0.2983333037
0.2983333038
0.2983333038
0.2983333038
0.2983333038
0.2983333038
0.2983333039
0.2983333039
0.2983333039
0.2949999704
0.2949999704
0.2949999704
0.2949999704
0.2949999704
0.2949999704
0.2949999705
0.2949999705
0.2949999705
0.2949999705
0.2949999705
0.2949999705
0.2916666371
0.2916666371
0.2916666371
0.2916666371
0.2916666371
0.2916666371
0.2916666371
0.2916666371
0.2916666372
0.2916666372
0.2916666372
0.2916666372
0.2883333038
0.2883333038
0.2883333038
0.2883333038
0.2883333038
0.2883333038
0.2883333039
0.2883333039
0.2883333039
0.2883333039
0.2883333039
0.2883333039
0.2849999705
0.2849999705
0.2849999705
0.2849999705
0.2849999705
0.2849999705
0.2849999705
0.2849999706
0.2849999706
0.2849999706
0.2849999706
0.2849999706
0.2816666372
0.2816666372
0.2816666372
0.2816666372
0.2816666372
0.2816666372
0.2816666372
0.2816666373
0.2816666373
0.2816666373
0.2816666373
0.2816666373
0.278333304
0.278333304
0.278333304
0.278333304
0.278333304
0.278333304
0.278333304
0.278333304
0.2783333041
0.2783333041
0.2783333041
0.2783333041
0.2749999707
0.2749999707
0.2749999707
0.2749999707
0.2749999707
0.2749999707
0.2749999707
0.2749999708
0.2749999708
0.2749999708
0.2749999708
0.2749999708
0.2716666374
0.2716666374
0.2716666374
0.2716666374
0.2716666375
0.2716666375
0.2716666375
0.2716666375
0.2716666375
0.2716666375
0.2716666375
0.2716666375
0.2683333042
0.2683333042
0.2683333042
0.2683333042
0.2683333042
0.2683333043
0.2683333043
0.2683333043
0.2683333043
0.2683333043
0.2683333043
0.2683333043
0.264999971
0.264999971
0.264999971
0.264999971
0.264999971
0.264999971
0.264999971
0.2649999711
0.2649999711
0.2649999711
0.2649999711
0.2649999711
0.2616666377
0.2616666377
0.2616666378
0.2616666378
0.2616666378
0.2616666378
0.2616666378
0.2616666378
0.2616666378
0.2616666378
0.2616666378
0.2616666378
0.2583333046
0.2583333046
0.2583333046
0.2583333046
0.2583333046
0.2583333046
0.2583333046
0.2583333046
0.2583333046
0.2583333046
0.2583333047
0.2583333047
0.2549999714
0.2549999714
0.2549999714
0.2549999714
0.2549999714
0.2549999714
0.2549999714
0.2549999714
0.2549999714
0.2549999714
0.2549999714
0.2549999714
0.2516666382
0.2516666382
0.2516666382
0.2516666382
0.2516666382
0.2516666382
0.2516666382
0.2516666382
0.2516666382
0.2516666382
0.2516666382
0.2516666382
0.2483333051
0.2483333051
0.2483333051
0.2483333051
0.2483333051
0.2483333051
0.2483333051
0.2483333051
0.2483333051
0.2483333051
0.2483333051
0.2483333051
0.2449999719
0.2449999719
0.2449999719
0.2449999719
0.2449999719
0.2449999719
0.2449999719
0.2449999719
0.2449999719
0.2449999719
0.2449999719
0.2449999719
0.2416666387
0.2416666387
0.2416666387
0.2416666387
0.2416666387
0.2416666387
0.2416666387
0.2416666387
0.2416666387
0.2416666387
0.2416666387
0.2416666387
0.2383333055
0.2383333055
0.2383333056
0.2383333056
0.2383333056
0.2383333056
0.2383333056
0.2383333056
0.2383333056
0.2383333056
0.2383333056
0.2383333056
0.2349999724
0.2349999724
0.2349999724
0.2349999724
0.2349999724
0.2349999724
0.2349999724
0.2349999724
0.2349999724
0.2349999725
0.2349999725
0.2349999725
0.2316666392
0.2316666392
0.2316666393
0.2316666393
0.2316666393
0.2316666393
0.2316666393
0.2316666393
0.2316666393
0.2316666393
0.2316666393
0.2316666394
0.2283333061
0.2283333061
0.2283333061
0.2283333061
0.2283333061
0.2283333061
0.2283333062
0.2283333062
0.2283333062
0.2283333062
0.2283333062
0.2283333062
0.224999973
0.224999973
0.224999973
0.224999973
0.224999973
0.224999973
0.2249999731
0.2249999731
0.2249999731
0.2249999731
0.2249999731
0.2249999731
0.2216666399
0.2216666399
0.2216666399
0.2216666399
0.2216666399
0.2216666399
0.22166664
0.22166664
0.22166664
0.22166664
0.22166664
0.22166664
0.2183333068
0.2183333068
0.2183333068
0.2183333068
0.2183333068
0.2183333068
0.2183333069
0.2183333069
0.2183333069
0.2183333069
0.2183333069
0.2183333069
0.2149999737
0.2149999737
0.2149999737
0.2149999737
0.2149999737
0.2149999738
0.2149999738
0.2149999738
0.2149999738
0.2149999738
0.2149999738
0.2149999738
0.2116666407
0.2116666407
0.2116666407
0.2116666407
0.2116666407
0.2116666407
0.2116666407
0.2116666407
0.2116666407
0.2116666407
0.2116666407
0.2116666408
0.2083333076
0.2083333076
0.2083333076
0.2083333076
0.2083333076
0.2083333076
0.2083333076
0.2083333076
0.2083333077
0.2083333077
0.2083333077
0.2083333077
0.2049999746
0.2049999746
0.2049999746
0.2049999746
0.2049999746
0.2049999746
0.2049999746
0.2049999746
0.2049999746
0.2049999746
0.2049999746
0.2049999746
0.2016666415
0.2016666415
0.2016666415
0.2016666415
0.2016666415
0.2016666415
0.2016666415
0.2016666415
0.2016666416
0.2016666416
0.2016666416
0.2016666416
0.1983333085
0.1983333085
0.1983333085
0.1983333085
0.1983333085
0.1983333085
0.1983333085
0.1983333085
0.1983333085
0.1983333085
0.1983333085
0.1983333085
0.1949999754
0.1949999754
0.1949999754
0.1949999755
0.1949999755
0.1949999755
0.1949999755
0.1949999755
0.1949999755
0.1949999755
0.1949999755
0.1949999755
0.1916666424
0.1916666424
0.1916666424
0.1916666424
0.1916666424
0.1916666424
0.1916666424
0.1916666424
0.1916666424
0.1916666424
0.1916666424
0.1916666424
0.1883333094
0.1883333094
0.1883333094
0.1883333094
0.1883333094
0.1883333094
0.1883333094
0.1883333094
0.1883333094
0.1883333094
0.1883333094
0.1883333094
0.1849999764
0.1849999764
0.1849999764
0.1849999764
0.1849999763
0.1849999763
0.1849999763
0.1849999763
0.1849999763
0.1849999763
0.1849999763
0.1849999763
0.1816666433
0.1816666433
0.1816666433
0.1816666433
0.1816666433
0.1816666433
0.1816666433
0.1816666433
0.1816666433
0.1816666433
0.1816666433
0.1816666433
0.1783333103
0.1783333103
0.1783333103
0.1783333103
0.1783333103
0.1783333103
0.1783333103
0.1783333103
0.1783333103
0.1783333103
0.1783333103
0.1783333103
0.1749999773
0.1749999773
0.1749999773
0.1749999773
0.1749999773
0.1749999772
0.1749999772
0.1749999772
0.1749999772
0.1749999772
0.1749999772
0.1749999772
0.1716666443
0.1716666443
0.1716666443
0.1716666442
0.1716666442
0.1716666442
0.1716666442
0.1716666442
0.1716666442
0.1716666442
0.1716666442
0.1716666442
0.1683333112
0.1683333112
0.1683333112
0.1683333112
0.1683333112
0.1683333112
0.1683333112
0.1683333112
0.1683333112
0.1683333112
0.1683333112
0.1683333112
0.1649999782
0.1649999782
0.1649999782
0.1649999782
0.1649999782
0.1649999782
0.1649999782
0.1649999782
0.1649999781
0.1649999781
0.1649999781
0.1649999781
0.1616666452
0.1616666452
0.1616666452
0.1616666452
0.1616666452
0.1616666452
0.1616666451
0.1616666451
0.1616666451
0.1616666451
0.1616666451
0.1616666451
0.1583333122
0.1583333122
0.1583333122
0.1583333122
0.1583333121
0.1583333121
0.1583333121
0.1583333121
0.1583333121
0.1583333121
0.1583333121
0.1583333121
0.1549999791
0.1549999791
0.1549999791
0.1549999791
0.1549999791
0.1549999791
0.1549999791
0.1549999791
0.1549999791
0.1549999791
0.1549999791
0.1549999791
0.1516666461
0.1516666461
0.1516666461
0.1516666461
0.1516666461
0.1516666461
0.1516666461
0.1516666461
0.1516666461
0.1516666461
0.1516666461
0.1516666461
0.1483333131
0.1483333131
0.1483333131
0.1483333131
0.1483333131
0.1483333131
0.1483333131
0.1483333131
0.1483333131
0.1483333131
0.1483333131
0.1483333131
0.1449999801
0.1449999801
0.1449999801
0.1449999801
0.1449999801
0.1449999801
0.1449999801
0.1449999801
0.1449999801
0.1449999801
0.1449999801
0.1449999801
0.1416666471
0.1416666471
0.1416666471
0.1416666471
0.1416666471
0.1416666471
0.1416666471
0.1416666471
0.1416666471
0.1416666471
0.1416666471
0.1416666471
0.138333314
0.138333314
0.138333314
0.138333314
0.138333314
0.138333314
0.1383333141
0.1383333141
0.1383333141
0.1383333141
0.1383333141
0.1383333141
0.134999981
0.134999981
0.134999981
0.134999981
0.134999981
0.134999981
0.134999981
0.134999981
0.1349999811
0.1349999811
0.1349999811
0.1349999811
0.131666648
0.131666648
0.131666648
0.131666648
0.131666648
0.131666648
0.131666648
0.131666648
0.131666648
0.131666648
0.1316666481
0.1316666481
0.128333315
0.128333315
0.128333315
0.128333315
0.128333315
0.128333315
0.128333315
0.128333315
0.128333315
0.128333315
0.128333315
0.1283333151
0.124999982
0.124999982
0.124999982
0.124999982
0.124999982
0.124999982
0.124999982
0.124999982
0.124999982
0.124999982
0.124999982
0.124999982
0.121666649
0.121666649
0.121666649
0.121666649
0.121666649
0.121666649
0.121666649
0.121666649
0.121666649
0.121666649
0.121666649
0.1216666491
0.118333316
0.118333316
0.118333316
0.118333316
0.1183333161
0.1183333161
0.1183333161
0.1183333161
0.1183333161
0.1183333161
0.1183333161
0.1183333161
0.114999983
0.114999983
0.1149999831
0.1149999831
0.1149999831
0.1149999831
0.1149999831
0.1149999831
0.1149999831
0.1149999831
0.1149999831
0.1149999831
0.1116666501
0.1116666501
0.1116666501
0.1116666501
0.1116666501
0.1116666501
0.1116666501
0.1116666501
0.1116666501
0.1116666501
0.1116666501
0.1116666501
0.1083333171
0.1083333171
0.1083333171
0.1083333171
0.1083333172
0.1083333172
0.1083333172
0.1083333172
0.1083333172
0.1083333172
0.1083333172
0.1083333172
0.1049999842
0.1049999842
0.1049999842
0.1049999842
0.1049999842
0.1049999842
0.1049999842
0.1049999842
0.1049999842
0.1049999843
0.1049999843
0.1049999843
0.1016666513
0.1016666513
0.1016666513
0.1016666513
0.1016666513
0.1016666513
0.1016666513
0.1016666513
0.1016666513
0.1016666513
0.1016666513
0.1016666513
0.09833331835
0.09833331835
0.09833331835
0.09833331835
0.09833331835
0.09833331835
0.09833331836
0.09833331837
0.09833331838
0.0983333184
0.0983333184
0.09833331841
0.09499998543
0.09499998543
0.09499998543
0.09499998543
0.09499998543
0.09499998543
0.09499998544
0.09499998545
0.09499998546
0.09499998547
0.09499998548
0.09499998548
0.09166665252
0.09166665252
0.09166665252
0.09166665252
0.09166665252
0.09166665252
0.09166665253
0.09166665254
0.09166665255
0.09166665256
0.09166665256
0.09166665257
0.08833331962
0.08833331962
0.08833331962
0.08833331962
0.08833331962
0.08833331963
0.08833331963
0.08833331964
0.08833331965
0.08833331966
0.08833331966
0.08833331967
0.08499998673
0.08499998673
0.08499998673
0.08499998673
0.08499998673
0.08499998674
0.08499998674
0.08499998675
0.08499998676
0.08499998676
0.08499998676
0.08499998677
0.08166665385
0.08166665385
0.08166665385
0.08166665385
0.08166665385
0.08166665386
0.08166665386
0.08166665387
0.08166665387
0.08166665388
0.08166665388
0.08166665388
0.07833332099
0.07833332099
0.07833332099
0.07833332099
0.07833332099
0.07833332099
0.078333321
0.078333321
0.07833332101
0.07833332101
0.07833332101
0.07833332102
0.07499998813
0.07499998813
0.07499998813
0.07499998813
0.07499998813
0.07499998813
0.07499998814
0.07499998814
0.07499998814
0.07499998815
0.07499998815
0.07499998815
0.0716666553
0.0716666553
0.07166665529
0.07166665529
0.07166665529
0.07166665529
0.07166665529
0.07166665529
0.07166665529
0.0716666553
0.07166665529
0.0716666553
0.06833332247
0.06833332247
0.06833332247
0.06833332246
0.06833332246
0.06833332246
0.06833332246
0.06833332246
0.06833332246
0.06833332246
0.06833332246
0.06833332246
0.06499998966
0.06499998965
0.06499998965
0.06499998964
0.06499998963
0.06499998963
0.06499998963
0.06499998963
0.06499998963
0.06499998963
0.06499998963
0.06499998963
0.06166665684
0.06166665684
0.06166665683
0.06166665683
0.06166665682
0.06166665681
0.06166665681
0.0616666568
0.0616666568
0.0616666568
0.06166665681
0.06166665681
0.05833332405
0.05833332404
0.05833332403
0.05833332402
0.05833332401
0.058333324
0.058333324
0.058333324
0.058333324
0.058333324
0.058333324
0.05833332401
0.05499999125
0.05499999125
0.05499999124
0.05499999122
0.05499999121
0.05499999119
0.05499999119
0.05499999119
0.05499999119
0.05499999119
0.0549999912
0.0549999912
0.05166665847
0.05166665846
0.05166665844
0.05166665842
0.0516666584
0.05166665839
0.05166665838
0.05166665838
0.05166665839
0.0516666584
0.0516666584
0.05166665841
0.0483333257
0.04833332569
0.04833332567
0.04833332565
0.04833332562
0.04833332561
0.0483333256
0.0483333256
0.04833332561
0.04833332562
0.04833332564
0.04833332564
0.04499999292
0.0449999929
0.04499999287
0.04499999284
0.04499999281
0.04499999278
0.04499999277
0.04499999278
0.04499999279
0.04499999282
0.04499999283
0.04499999285
0.04166666014
0.04166666012
0.04166666008
0.04166666003
0.04166665998
0.04166665995
0.04166665994
0.04166665995
0.04166665999
0.04166666001
0.04166666005
0.04166666007
0.03833332743
0.03833332739
0.03833332734
0.03833332727
0.0383333272
0.03833332716
0.03833332715
0.03833332718
0.03833332722
0.03833332728
0.03833332732
0.03833332735
0.03499999468
0.03499999463
0.03499999455
0.03499999445
0.03499999436
0.03499999431
0.0349999943
0.03499999433
0.03499999441
0.03499999448
0.03499999456
0.03499999459
0.03166666193
0.03166666186
0.03166666175
0.03166666162
0.0316666615
0.03166666143
0.03166666143
0.03166666149
0.03166666158
0.0316666617
0.0316666618
0.03166666184
0.02833332925
0.02833332916
0.028333329
0.02833332882
0.02833332867
0.02833332858
0.02833332859
0.02833332867
0.02833332881
0.02833332897
0.0283333291
0.02833332915
0.02499999651
0.0249999964
0.02499999619
0.02499999596
0.02499999576
0.02499999565
0.02499999566
0.02499999578
0.02499999597
0.02499999619
0.02499999636
0.02499999644
0.02166666382
0.02166666367
0.0216666634
0.02166666308
0.02166666281
0.02166666266
0.02166666268
0.02166666285
0.02166666313
0.02166666342
0.02166666365
0.02166666376
0.01833333128
0.01833333107
0.01833333069
0.01833333024
0.01833332985
0.01833332962
0.01833332964
0.01833332989
0.0183333303
0.01833333072
0.01833333106
0.01833333124
0.01499999885
0.01499999857
0.01499999803
0.01499999734
0.0149999967
0.01499999632
0.01499999633
0.01499999673
0.01499999737
0.01499999804
0.01499999857
0.01499999883
0.01166666676
0.01166666636
0.01166666553
0.0116666644
0.01166666331
0.01166666264
0.01166666263
0.0116666633
0.01166666439
0.01166666552
0.01166666632
0.01166666672
0.008333335098
0.00833333464
0.008333333377
0.008333331462
0.008333329528
0.008333328313
0.008333328305
0.008333329505
0.008333331431
0.008333333334
0.008333334607
0.008333335068
0.005000003851
0.005000003656
0.005000001799
0.004999998466
0.004999994951
0.004999992726
0.004999992721
0.004999994938
0.004999998448
0.005000001779
0.005000003625
0.005000003816
0.001666672766
0.001666674297
0.001666671669
0.001666665639
0.001666659084
0.001666654929
0.001666654929
0.001666659084
0.001666665637
0.001666671663
0.001666674285
0.001666672751
)
;

boundaryField
{
    inlet
    {
        type            zeroGradient;
    }
    walls
    {
        type            zeroGradient;
    }
    outlet
    {
        type            fixedValue;
        value           uniform 0;
    }
    defaultFaces
    {
        type            empty;
    }
}


// ************************************************************************* //
