/*--------------------------------*- C++ -*----------------------------------*\
| =========                 |                                                 |
| \\      /  F ield         | OpenFOAM: The Open Source CFD Toolbox           |
|  \\    /   O peration     | Version:  v2012                                 |
|   \\  /    A nd           | Website:  www.openfoam.com                      |
|    \\/     M anipulation  |                                                 |
\*---------------------------------------------------------------------------*/
FoamFile
{
    version     2.0;
    format      ascii;
    class       volScalarField;
    location    "0";
    object      Pippo_p1_nuovo;
}
// * * * * * * * * * * * * * * * * * * * * * * * * * * * * * * * * * * * * * //

dimensions      [0 2 -2 0 0 0 0];


internalField   nonuniform List<scalar> 
1080
(
1.999772325
1.999772746
1.99977277
1.999772332
1.999771657
1.999771184
1.999771184
1.999771657
1.999772332
1.99977277
1.999772746
1.999772325
1.999772659
1.999773387
1.999773934
1.999773849
1.999773534
1.999773296
1.999773296
1.999773534
1.999773849
1.999773934
1.999773387
1.999772659
1.999773543
1.999774442
1.999775206
1.999775477
1.999775495
1.999775456
1.999775456
1.999775495
1.999775477
1.999775206
1.999774442
1.999773543
1.999775203
1.999776093
1.999776891
1.999777289
1.999777448
1.9997775
1.9997775
1.999777448
1.999777289
1.999776891
1.999776093
1.999775203
1.999777418
1.999778184
1.999778894
1.999779296
1.999779498
1.999779582
1.999779582
1.999779498
1.999779296
1.999778894
1.999778184
1.999777418
1.999779963
1.999780562
1.999781133
1.999781486
1.999781683
1.999781774
1.999781774
1.999781683
1.999781486
1.999781133
1.999780562
1.999779963
1.999782675
1.999783108
1.999783533
1.999783817
1.999783987
1.999784069
1.999784069
1.999783987
1.999783817
1.999783533
1.999783108
1.999782675
1.999785445
1.999785738
1.999786035
1.999786248
1.999786383
1.99978645
1.99978645
1.999786383
1.999786248
1.999786035
1.999785738
1.999785445
1.999788213
1.999788399
1.999788596
1.999788746
1.999788847
1.999788898
1.999788898
1.999788847
1.999788746
1.999788596
1.999788399
1.999788213
1.999790952
1.999791063
1.999791187
1.999791288
1.999791359
1.999791396
1.999791396
1.999791359
1.999791288
1.999791187
1.999791063
1.999790952
1.999793655
1.999793717
1.999793791
1.999793856
1.999793904
1.999793929
1.999793929
1.999793904
1.999793856
1.999793791
1.999793717
1.999793655
1.999796325
1.999796357
1.999796398
1.999796438
1.999796469
1.999796486
1.999796486
1.999796469
1.999796438
1.999796398
1.999796357
1.999796325
1.999798969
1.999798983
1.999799005
1.999799028
1.999799047
1.999799058
1.999799058
1.999799047
1.999799028
1.999799005
1.999798983
1.99979897
1.999801594
1.999801599
1.999801609
1.999801622
1.999801633
1.99980164
1.99980164
1.999801633
1.999801622
1.999801609
1.999801599
1.999801594
1.999804206
1.999804206
1.99980421
1.999804217
1.999804223
1.999804227
1.999804227
1.999804223
1.999804217
1.99980421
1.999804206
1.999804206
1.999806809
1.999806808
1.999806808
1.999806812
1.999806815
1.999806817
1.999806817
1.999806815
1.999806812
1.999806808
1.999806808
1.999806809
1.999809407
1.999809405
1.999809405
1.999809406
1.999809408
1.999809409
1.999809409
1.999809408
1.999809406
1.999809405
1.999809405
1.999809407
1.999812003
1.999812001
1.999812
1.999812
1.999812001
1.999812002
1.999812002
1.999812001
1.999812
1.999812
1.999812001
1.999812003
1.999814597
1.999814595
1.999814594
1.999814594
1.999814595
1.999814595
1.999814595
1.999814595
1.999814594
1.999814594
1.999814595
1.999814597
1.99981719
1.999817189
1.999817188
1.999817188
1.999817188
1.999817188
1.999817188
1.999817188
1.999817188
1.999817188
1.999817189
1.99981719
1.999819783
1.999819782
1.999819781
1.999819781
1.999819781
1.999819781
1.999819781
1.999819781
1.999819781
1.999819781
1.999819782
1.999819783
1.999822375
1.999822375
1.999822375
1.999822374
1.999822374
1.999822374
1.999822374
1.999822374
1.999822374
1.999822375
1.999822375
1.999822375
1.999824968
1.999824968
1.999824968
1.999824967
1.999824967
1.999824967
1.999824967
1.999824967
1.999824967
1.999824968
1.999824968
1.999824968
1.999827561
1.999827561
1.999827561
1.99982756
1.99982756
1.99982756
1.99982756
1.99982756
1.99982756
1.999827561
1.999827561
1.999827561
1.999830154
1.999830154
1.999830154
1.999830153
1.999830153
1.999830153
1.999830153
1.999830153
1.999830153
1.999830154
1.999830154
1.999830154
1.999832747
1.999832747
1.999832746
1.999832746
1.999832746
1.999832746
1.999832746
1.999832746
1.999832746
1.999832747
1.999832747
1.999832747
1.999835339
1.999835339
1.999835339
1.999835339
1.999835339
1.999835339
1.999835339
1.999835339
1.999835339
1.999835339
1.999835339
1.99983534
1.999837932
1.999837932
1.999837932
1.999837932
1.999837932
1.999837932
1.999837932
1.999837932
1.999837932
1.999837932
1.999837932
1.999837932
1.999840525
1.999840525
1.999840525
1.999840525
1.999840525
1.999840525
1.999840525
1.999840525
1.999840525
1.999840525
1.999840525
1.999840525
1.999843118
1.999843118
1.999843118
1.999843118
1.999843118
1.999843118
1.999843118
1.999843118
1.999843118
1.999843118
1.999843118
1.999843118
1.999845711
1.999845711
1.999845711
1.999845711
1.999845711
1.999845711
1.999845711
1.999845711
1.999845711
1.999845711
1.999845711
1.999845711
1.999848304
1.999848304
1.999848304
1.999848304
1.999848304
1.999848304
1.999848304
1.999848304
1.999848304
1.999848304
1.999848304
1.999848304
1.999850897
1.999850897
1.999850897
1.999850897
1.999850897
1.999850897
1.999850897
1.999850897
1.999850897
1.999850897
1.999850897
1.999850897
1.99985349
1.99985349
1.99985349
1.99985349
1.99985349
1.99985349
1.99985349
1.99985349
1.99985349
1.99985349
1.99985349
1.99985349
1.999856083
1.999856083
1.999856083
1.999856083
1.999856083
1.999856083
1.999856083
1.999856083
1.999856083
1.999856083
1.999856083
1.999856083
1.999858676
1.999858676
1.999858676
1.999858676
1.999858676
1.999858676
1.999858676
1.999858676
1.999858676
1.999858676
1.999858676
1.999858676
1.999861269
1.999861269
1.999861269
1.999861269
1.999861269
1.999861269
1.999861269
1.999861269
1.999861269
1.999861269
1.999861269
1.999861269
1.999863862
1.999863862
1.999863862
1.999863862
1.999863862
1.999863862
1.999863862
1.999863862
1.999863862
1.999863862
1.999863862
1.999863862
1.999866455
1.999866455
1.999866455
1.999866455
1.999866455
1.999866455
1.999866455
1.999866455
1.999866455
1.999866455
1.999866455
1.999866455
1.999869048
1.999869048
1.999869048
1.999869048
1.999869048
1.999869048
1.999869048
1.999869048
1.999869048
1.999869048
1.999869048
1.999869048
1.999871641
1.999871641
1.999871641
1.999871641
1.999871641
1.999871641
1.999871641
1.999871641
1.999871641
1.999871641
1.999871641
1.999871641
1.999874234
1.999874234
1.999874234
1.999874234
1.999874234
1.999874234
1.999874234
1.999874234
1.999874234
1.999874234
1.999874234
1.999874234
1.999876827
1.999876827
1.999876827
1.999876827
1.999876827
1.999876827
1.999876827
1.999876827
1.999876827
1.999876827
1.999876827
1.999876827
1.99987942
1.99987942
1.99987942
1.99987942
1.99987942
1.99987942
1.99987942
1.99987942
1.99987942
1.99987942
1.99987942
1.99987942
1.999882013
1.999882013
1.999882013
1.999882013
1.999882013
1.999882013
1.999882013
1.999882013
1.999882013
1.999882013
1.999882013
1.999882013
1.999884606
1.999884606
1.999884606
1.999884606
1.999884606
1.999884606
1.999884606
1.999884606
1.999884606
1.999884606
1.999884606
1.999884606
1.999887199
1.999887199
1.999887199
1.999887199
1.999887199
1.999887199
1.999887199
1.999887199
1.999887199
1.999887199
1.999887199
1.999887199
1.999889792
1.999889792
1.999889792
1.999889792
1.999889792
1.999889792
1.999889792
1.999889792
1.999889792
1.999889792
1.999889792
1.999889792
1.999892385
1.999892385
1.999892385
1.999892385
1.999892385
1.999892385
1.999892385
1.999892385
1.999892385
1.999892385
1.999892385
1.999892385
1.999894978
1.999894978
1.999894978
1.999894978
1.999894978
1.999894978
1.999894978
1.999894978
1.999894978
1.999894978
1.999894978
1.999894978
1.999897571
1.999897571
1.999897571
1.999897571
1.999897571
1.999897571
1.999897571
1.999897571
1.999897571
1.999897571
1.999897571
1.999897571
1.999900164
1.999900164
1.999900164
1.999900164
1.999900164
1.999900164
1.999900164
1.999900164
1.999900164
1.999900164
1.999900164
1.999900164
1.999902757
1.999902757
1.999902757
1.999902757
1.999902757
1.999902757
1.999902757
1.999902757
1.999902757
1.999902757
1.999902757
1.999902757
1.99990535
1.99990535
1.99990535
1.99990535
1.99990535
1.99990535
1.99990535
1.99990535
1.99990535
1.99990535
1.99990535
1.99990535
1.999907943
1.999907943
1.999907943
1.999907943
1.999907943
1.999907943
1.999907943
1.999907943
1.999907943
1.999907943
1.999907943
1.999907943
1.999910536
1.999910536
1.999910536
1.999910536
1.999910536
1.999910536
1.999910536
1.999910536
1.999910536
1.999910536
1.999910536
1.999910536
1.999913128
1.999913128
1.999913128
1.999913128
1.999913128
1.999913128
1.999913128
1.999913128
1.999913128
1.999913128
1.999913128
1.999913128
1.999915721
1.999915721
1.999915721
1.999915721
1.999915721
1.999915721
1.999915721
1.999915721
1.999915721
1.999915721
1.999915721
1.999915721
1.999918314
1.999918314
1.999918314
1.999918314
1.999918314
1.999918314
1.999918314
1.999918314
1.999918314
1.999918314
1.999918314
1.999918314
1.999920907
1.999920907
1.999920907
1.999920907
1.999920907
1.999920907
1.999920907
1.999920907
1.999920907
1.999920907
1.999920907
1.999920907
1.9999235
1.9999235
1.9999235
1.9999235
1.9999235
1.9999235
1.9999235
1.9999235
1.9999235
1.9999235
1.9999235
1.9999235
1.999926093
1.999926093
1.999926093
1.999926093
1.999926093
1.999926093
1.999926093
1.999926093
1.999926093
1.999926093
1.999926093
1.999926093
1.999928686
1.999928686
1.999928686
1.999928686
1.999928686
1.999928686
1.999928686
1.999928686
1.999928686
1.999928686
1.999928686
1.999928686
1.999931279
1.999931279
1.999931279
1.999931279
1.999931279
1.999931279
1.999931279
1.999931279
1.999931279
1.999931279
1.999931279
1.999931279
1.999933872
1.999933872
1.999933872
1.999933872
1.999933872
1.999933872
1.999933872
1.999933872
1.999933872
1.999933872
1.999933872
1.999933872
1.999936465
1.999936465
1.999936465
1.999936465
1.999936465
1.999936465
1.999936465
1.999936465
1.999936465
1.999936465
1.999936465
1.999936465
1.999939058
1.999939058
1.999939058
1.999939058
1.999939058
1.999939058
1.999939058
1.999939058
1.999939058
1.999939058
1.999939058
1.999939058
1.999941651
1.999941651
1.999941651
1.999941651
1.999941651
1.999941651
1.999941651
1.999941651
1.999941651
1.999941651
1.999941651
1.999941651
1.999944244
1.999944244
1.999944244
1.999944244
1.999944244
1.999944244
1.999944244
1.999944244
1.999944244
1.999944244
1.999944244
1.999944244
1.999946837
1.999946837
1.999946837
1.999946837
1.999946837
1.999946837
1.999946837
1.999946837
1.999946837
1.999946837
1.999946837
1.999946837
1.99994943
1.99994943
1.99994943
1.99994943
1.99994943
1.99994943
1.99994943
1.99994943
1.99994943
1.99994943
1.99994943
1.99994943
1.999952023
1.999952023
1.999952023
1.999952023
1.999952023
1.999952023
1.999952023
1.999952023
1.999952023
1.999952023
1.999952023
1.999952023
1.999954616
1.999954616
1.999954616
1.999954616
1.999954616
1.999954616
1.999954616
1.999954616
1.999954616
1.999954616
1.999954616
1.999954616
1.999957209
1.999957209
1.999957209
1.999957209
1.999957209
1.999957209
1.999957209
1.999957209
1.999957209
1.999957209
1.999957209
1.999957209
1.999959802
1.999959802
1.999959802
1.999959802
1.999959802
1.999959802
1.999959802
1.999959802
1.999959802
1.999959802
1.999959802
1.999959802
1.999962395
1.999962395
1.999962395
1.999962395
1.999962395
1.999962395
1.999962395
1.999962395
1.999962395
1.999962395
1.999962395
1.999962395
1.999964988
1.999964988
1.999964988
1.999964988
1.999964988
1.999964988
1.999964988
1.999964988
1.999964988
1.999964988
1.999964988
1.999964988
1.999967581
1.999967581
1.999967581
1.999967581
1.999967581
1.999967581
1.999967581
1.999967581
1.999967581
1.999967581
1.999967581
1.999967581
1.999970174
1.999970174
1.999970174
1.999970174
1.999970174
1.999970174
1.999970174
1.999970174
1.999970174
1.999970174
1.999970174
1.999970174
1.999972767
1.999972767
1.999972767
1.999972767
1.999972767
1.999972767
1.999972767
1.999972767
1.999972767
1.999972767
1.999972767
1.999972767
1.99997536
1.99997536
1.99997536
1.99997536
1.99997536
1.99997536
1.99997536
1.99997536
1.99997536
1.99997536
1.99997536
1.99997536
1.999977953
1.999977953
1.999977953
1.999977953
1.999977953
1.999977953
1.999977953
1.999977953
1.999977953
1.999977953
1.999977953
1.999977953
1.999980546
1.999980546
1.999980546
1.999980546
1.999980546
1.999980546
1.999980546
1.999980546
1.999980546
1.999980546
1.999980546
1.999980546
1.999983138
1.999983139
1.999983139
1.999983139
1.999983139
1.999983139
1.999983139
1.999983139
1.999983139
1.999983139
1.999983139
1.999983138
1.999985731
1.999985732
1.999985732
1.999985732
1.999985732
1.999985732
1.999985732
1.999985732
1.999985732
1.999985732
1.999985732
1.999985731
1.999988325
1.999988325
1.999988326
1.999988326
1.999988326
1.999988326
1.999988326
1.999988326
1.999988326
1.999988326
1.999988325
1.999988325
1.999990918
1.999990919
1.99999092
1.999990921
1.999990921
1.999990921
1.999990921
1.999990921
1.999990921
1.99999092
1.999990919
1.999990918
1.999993512
1.999993512
1.999993512
1.999993512
1.999993512
1.999993512
1.999993512
1.999993512
1.999993512
1.999993512
1.999993512
1.999993512
1.999996106
1.999996107
1.999996103
1.999996101
1.999996101
1.9999961
1.9999961
1.999996101
1.999996101
1.999996103
1.999996107
1.999996106
1.9999987
1.999998702
1.9999987
1.999998699
1.999998699
1.999998698
1.999998698
1.999998699
1.999998699
1.9999987
1.999998702
1.9999987
)
;

boundaryField
{
    inlet
    {
        type            zeroGradient;
    }
    walls
    {
        type            zeroGradient;
    }
    outlet
    {
        type            fixedValue;
        value           uniform 2;
    }
    defaultFaces
    {
        type            empty;
    }
}


// ************************************************************************* //
