/*--------------------------------*- C++ -*----------------------------------*\
| =========                 |                                                 |
| \\      /  F ield         | OpenFOAM: The Open Source CFD Toolbox           |
|  \\    /   O peration     | Version:  v2012                                 |
|   \\  /    A nd           | Website:  www.openfoam.com                      |
|    \\/     M anipulation  |                                                 |
\*---------------------------------------------------------------------------*/
FoamFile
{
    version     2.0;
    format      ascii;
    class       volVectorField;
    location    "0";
    object      Pippo_u1_nuovo;
}
// * * * * * * * * * * * * * * * * * * * * * * * * * * * * * * * * * * * * * //

dimensions      [0 1 -1 0 0 0 0];


internalField   nonuniform List<vector> 
1080
(
(0 4.425360285e-08 6.504896024e-09)
(0 5.926556877e-07 3.907237097e-08)
(0 1.050977031e-06 5.171721054e-08)
(0 1.194136884e-06 1.281662941e-07)
(0 9.36828365e-07 2.089220604e-07)
(0 3.532438484e-07 2.560291725e-07)
(0 -3.532442292e-07 2.560291667e-07)
(0 -9.368286905e-07 2.089220438e-07)
(0 -1.194137119e-06 1.28166271e-07)
(0 -1.050977154e-06 5.171719366e-08)
(0 -5.926557351e-07 3.90723636e-08)
(0 -4.425359021e-08 6.504899765e-09)
(0 1.328847467e-07 -6.33051559e-07)
(0 1.364411313e-06 -9.974008531e-07)
(0 2.383634327e-06 -6.341537067e-07)
(0 2.706421622e-06 1.182694641e-07)
(0 2.109823941e-06 8.592627852e-07)
(0 7.927915602e-07 1.301530468e-06)
(0 -7.927923068e-07 1.301530416e-06)
(0 -2.109824579e-06 8.592626437e-07)
(0 -2.706422072e-06 1.182692721e-07)
(0 -2.383634568e-06 -6.341538906e-07)
(0 -1.364411385e-06 -9.974009645e-07)
(0 -1.32884724e-07 -6.330515938e-07)
(0 1.537405277e-07 -1.416236689e-06)
(0 1.540651067e-06 -2.294874279e-06)
(0 2.771861081e-06 -1.445728145e-06)
(0 3.197484965e-06 2.601546069e-07)
(0 2.515427102e-06 1.947769078e-06)
(0 9.490329049e-07 2.961747883e-06)
(0 -9.490339888e-07 2.961747766e-06)
(0 -2.515428045e-06 1.94776876e-06)
(0 -3.197485667e-06 2.601541728e-07)
(0 -2.77186148e-06 -1.445728568e-06)
(0 -1.540651223e-06 -2.294874572e-06)
(0 -1.537405275e-07 -1.41623678e-06)
(0 1.277465227e-07 -2.195328369e-06)
(0 1.362652682e-06 -3.634491528e-06)
(0 2.544652165e-06 -2.339076128e-06)
(0 2.999982051e-06 3.682939761e-07)
(0 2.390136024e-06 3.083731406e-06)
(0 9.071009105e-07 4.727379698e-06)
(0 -9.071021161e-07 4.727379505e-06)
(0 -2.39013708e-06 3.083730877e-06)
(0 -2.99998284e-06 3.68293248e-07)
(0 -2.544652645e-06 -2.339076861e-06)
(0 -1.362652874e-06 -3.634492053e-06)
(0 -1.277465196e-07 -2.19532856e-06)
(0 9.313481045e-08 -2.821473807e-06)
(0 1.050469698e-06 -4.769597336e-06)
(0 2.035572845e-06 -3.14146538e-06)
(0 2.45422185e-06 4.23342142e-07)
(0 1.981723202e-06 4.058027774e-06)
(0 7.568857502e-07 6.276275337e-06)
(0 -7.568869094e-07 6.276275069e-06)
(0 -1.981724218e-06 4.058027036e-06)
(0 -2.454222623e-06 4.233411178e-07)
(0 -2.035573297e-06 -3.14146642e-06)
(0 -1.050469885e-06 -4.769598115e-06)
(0 -9.313481577e-08 -2.821474099e-06)
(0 6.023066601e-08 -3.269542314e-06)
(0 7.330107497e-07 -5.628355058e-06)
(0 1.474112227e-06 -3.78572546e-06)
(0 1.817399989e-06 4.304966686e-07)
(0 1.487375763e-06 4.795598153e-06)
(0 5.717373867e-07 7.480132781e-06)
(0 -5.717383984e-07 7.480132445e-06)
(0 -1.487376651e-06 4.795597225e-06)
(0 -1.81740065e-06 4.304953772e-07)
(0 -1.474112636e-06 -3.785726788e-06)
(0 -7.33010911e-07 -5.628356058e-06)
(0 -6.023065737e-08 -3.269542702e-06)
(0 3.45025852e-08 -3.562686272e-06)
(0 4.700292425e-07 -6.22353283e-06)
(0 9.833539451e-07 -4.257696372e-06)
(0 1.240472388e-06 4.11889142e-07)
(0 1.029214869e-06 5.308431515e-06)
(0 3.982136537e-07 8.339215987e-06)
(0 -3.982144685e-07 8.339215593e-06)
(0 -1.02921558e-06 5.308430426e-06)
(0 -1.240472931e-06 4.118876236e-07)
(0 -9.833542491e-07 -4.257697934e-06)
(0 -4.700293657e-07 -6.223534023e-06)
(0 -3.450258548e-08 -3.562686734e-06)
(0 1.706074834e-08 -3.738725609e-06)
(0 2.776121165e-07 -6.6053771e-06)
(0 6.0804568e-07 -4.577710786e-06)
(0 7.865468245e-07 3.841672177e-07)
(0 6.622297646e-07 5.639284595e-06)
(0 2.580001907e-07 8.908456207e-06)
(0 -2.580008e-07 8.908455767e-06)
(0 -6.622302967e-07 5.63928338e-06)
(0 -7.8654721e-07 3.841655222e-07)
(0 -6.080459206e-07 -4.577712537e-06)
(0 -2.776122046e-07 -6.605378432e-06)
(0 -1.706073046e-08 -3.738726129e-06)
(0 6.526489337e-09 -3.834890733e-06)
(0 1.493895646e-07 -6.832479012e-06)
(0 3.473672765e-07 -4.779981092e-06)
(0 4.631372108e-07 3.566674284e-07)
(0 3.966177045e-07 5.837282373e-06)
(0 1.557399902e-07 9.259583935e-06)
(0 -1.557404088e-07 9.259583461e-06)
(0 -3.966180651e-07 5.837281064e-06)
(0 -4.631374888e-07 3.566656012e-07)
(0 -3.473674115e-07 -4.779982974e-06)
(0 -1.493896167e-07 -6.832480452e-06)
(0 -6.52648485e-09 -3.83489129e-06)
(0 8.800846829e-10 -3.88121324e-06)
(0 7.074026237e-08 -6.956603666e-06)
(0 1.803655793e-07 -4.899115684e-06)
(0 2.506572381e-07 3.336891986e-07)
(0 2.194437578e-07 5.946301628e-06)
(0 8.703041455e-08 9.460437548e-06)
(0 -8.703067298e-08 9.460437051e-06)
(0 -2.19443981e-07 5.946300255e-06)
(0 -2.506573858e-07 3.336872832e-07)
(0 -1.803656781e-07 -4.899117661e-06)
(0 -7.074029085e-08 -6.956605166e-06)
(0 -8.800598839e-10 -3.881213821e-06)
(0 -1.69051101e-09 -3.899075336e-06)
(0 2.646080475e-08 -7.017304477e-06)
(0 8.137810607e-08 -4.963886711e-06)
(0 1.211542213e-07 3.164188214e-07)
(0 1.097007898e-07 6.00020701e-06)
(0 4.414638309e-08 9.565418524e-06)
(0 -4.414651554e-08 9.565418011e-06)
(0 -1.097008982e-07 6.000205596e-06)
(0 -1.211543116e-07 3.164168501e-07)
(0 -8.137812312e-08 -4.963888737e-06)
(0 -2.646080963e-08 -7.01730602e-06)
(0 1.690516948e-09 -3.899075926e-06)
(0 -2.50825745e-09 -3.902380462e-06)
(0 4.033712042e-09 -7.041891518e-06)
(0 2.754535319e-08 -4.995551461e-06)
(0 4.82129141e-08 3.044110298e-07)
(0 4.668372038e-08 6.022568933e-06)
(0 1.930204011e-08 9.613614932e-06)
(0 -1.930208202e-08 9.613614412e-06)
(0 -4.668375435e-08 6.022567497e-06)
(0 -4.821291722e-08 3.044090306e-07)
(0 -2.754536965e-08 -4.995553518e-06)
(0 -4.033708029e-09 -7.041893071e-06)
(0 2.508285464e-09 -3.902381056e-06)
(0 -2.336775259e-09 -3.899249169e-06)
(0 -5.514814113e-09 -7.047844771e-06)
(0 1.375964131e-09 -5.008546539e-06)
(0 1.088632755e-08 2.965770228e-07)
(0 1.357076935e-08 6.028479343e-06)
(0 6.092143065e-09 9.630822195e-06)
(0 -6.092123662e-09 9.630821671e-06)
(0 -1.357074492e-08 6.028477898e-06)
(0 -1.088632207e-08 2.96575012e-07)
(0 -1.375921322e-09 -5.008548599e-06)
(0 5.514831679e-09 -7.047846333e-06)
(0 2.336780863e-09 -3.899249758e-06)
(0 -1.874091547e-09 -3.894066163e-06)
(0 -8.296385483e-09 -7.045452401e-06)
(0 -9.115062613e-09 -5.011940003e-06)
(0 -5.650387357e-09 2.917476554e-07)
(0 -1.787011363e-09 6.026878253e-06)
(0 -1.535009921e-10 9.632823292e-06)
(0 1.535561138e-10 9.632822767e-06)
(0 1.787060766e-09 6.026876808e-06)
(0 5.65044772e-09 2.91745647e-07)
(0 9.115078236e-09 -5.011942064e-06)
(0 8.296402722e-09 -7.04545395e-06)
(0 1.874122956e-09 -3.894066749e-06)
(0 -1.377143101e-09 -3.889043307e-06)
(0 -7.916885043e-09 -7.040200959e-06)
(0 -1.157086932e-08 -5.010985656e-06)
(0 -1.106177048e-08 2.8893899e-07)
(0 -7.424513696e-09 6.022634412e-06)
(0 -2.547384333e-09 9.6285519e-06)
(0 2.547457974e-09 9.628551377e-06)
(0 7.424584916e-09 6.022632972e-06)
(0 1.106180648e-08 2.889369894e-07)
(0 1.157093276e-08 -5.010987701e-06)
(0 7.916909552e-09 -7.040202503e-06)
(0 1.377147171e-09 -3.889043884e-06)
(0 -9.436548668e-10 -3.884974439e-06)
(0 -6.364139938e-09 -7.034781908e-06)
(0 -1.045563359e-08 -5.008521231e-06)
(0 -1.117211951e-08 2.87410684e-07)
(0 -8.268977997e-09 6.018125656e-06)
(0 -3.013691259e-09 9.622619839e-06)
(0 3.013769526e-09 9.622619319e-06)
(0 8.269046296e-09 6.018124224e-06)
(0 1.117219481e-08 2.874086957e-07)
(0 1.045565249e-08 -5.008523267e-06)
(0 6.364157697e-09 -7.034783434e-06)
(0 9.436873062e-10 -3.884975012e-06)
(0 -6.094115952e-10 -3.881995038e-06)
(0 -4.633215297e-09 -7.030268861e-06)
(0 -8.159480476e-09 -5.005920438e-06)
(0 -9.21507069e-09 2.866449125e-07)
(0 -7.111255448e-09 6.014321403e-06)
(0 -2.652183438e-09 9.617113438e-06)
(0 2.652259604e-09 9.617112921e-06)
(0 7.111328408e-09 6.014319979e-06)
(0 9.215103918e-09 2.866429355e-07)
(0 8.15954456e-09 -5.005922456e-06)
(0 4.633238364e-09 -7.030270381e-06)
(0 6.094131269e-10 -3.881995603e-06)
(0 -3.73026986e-10 -3.879964349e-06)
(0 -3.144651839e-09 -7.026910144e-06)
(0 -5.823260782e-09 -5.003734695e-06)
(0 -6.817766992e-09 2.863061601e-07)
(0 -5.394788666e-09 6.011467536e-06)
(0 -2.038622367e-09 9.612757186e-06)
(0 2.038690751e-09 9.612756672e-06)
(0 5.394846958e-09 6.01146612e-06)
(0 6.817836256e-09 2.863041952e-07)
(0 5.823270718e-09 -5.003736705e-06)
(0 3.144665634e-09 -7.026911648e-06)
(0 3.730602239e-10 -3.879964911e-06)
(0 -2.165431307e-10 -3.878658105e-06)
(0 -2.016847485e-09 -7.024592053e-06)
(0 -3.893419138e-09 -5.002099002e-06)
(0 -4.685761768e-09 2.861897537e-07)
(0 -3.775754445e-09 6.009486442e-06)
(0 -1.440012159e-09 9.609619677e-06)
(0 1.440072265e-09 9.609619165e-06)
(0 3.775813059e-09 6.009485032e-06)
(0 4.685780781e-09 2.861877976e-07)
(0 3.893477348e-09 -5.002100997e-06)
(0 2.016866922e-09 -7.024593555e-06)
(0 2.165420321e-10 -3.878658661e-06)
(0 -1.186293928e-10 -3.877860145e-06)
(0 -1.22968475e-09 -7.02308324e-06)
(0 -2.466650844e-09 -5.000964992e-06)
(0 -3.040156214e-09 2.861779676e-07)
(0 -2.486813107e-09 6.008190798e-06)
(0 -9.554932148e-10 9.607506308e-06)
(0 9.555434043e-10 9.607505798e-06)
(0 2.486854602e-09 6.008189393e-06)
(0 3.040214661e-09 2.8617602e-07)
(0 2.466649638e-09 -5.000966984e-06)
(0 1.229694063e-09 -7.023084729e-06)
(0 1.186634045e-10 -3.8778607e-06)
(0 -6.054969384e-11 -3.877396692e-06)
(0 -7.134728257e-10 -7.022149763e-06)
(0 -1.488032937e-09 -5.000223496e-06)
(0 -1.876145633e-09 2.862074578e-07)
(0 -1.555976061e-09 6.007385682e-06)
(0 -6.018392418e-10 9.606157952e-06)
(0 6.018817649e-10 9.606157443e-06)
(0 1.556019552e-09 6.007384282e-06)
(0 1.876150288e-09 2.862055149e-07)
(0 1.488085598e-09 -5.000225477e-06)
(0 7.134891634e-10 -7.022151253e-06)
(0 6.054617374e-11 -3.877397243e-06)
(0 -2.795800686e-11 -3.877141737e-06)
(0 -3.925335378e-10 -7.021599374e-06)
(0 -8.55012012e-10 -4.999762289e-06)
(0 -1.103958159e-09 2.862469675e-07)
(0 -9.283720948e-10 6.006908876e-06)
(0 -3.614519421e-10 9.605338423e-06)
(0 3.614866388e-10 9.605337915e-06)
(0 9.283993016e-10 6.006907479e-06)
(0 1.104008086e-09 2.862450294e-07)
(0 8.550016871e-10 -4.99976427e-06)
(0 3.925394075e-10 -7.021600857e-06)
(0 2.799294875e-11 -3.877142288e-06)
(0 -1.080633004e-11 -3.877010261e-06)
(0 -2.02707079e-10 -7.021290641e-06)
(0 -4.659534099e-10 -4.999488512e-06)
(0 -6.182664843e-10 2.862830066e-07)
(0 -5.279543884e-10 6.006640107e-06)
(0 -2.070143449e-10 9.604863357e-06)
(0 2.070441194e-10 9.60486285e-06)
(0 5.279868688e-10 6.006638711e-06)
(0 6.182603273e-10 2.862810703e-07)
(0 4.660028898e-10 -4.999490488e-06)
(0 2.027215662e-10 -7.021292128e-06)
(0 1.080068418e-11 -3.877010809e-06)
(0 -2.510368993e-12 -3.876948167e-06)
(0 -9.610566029e-11 -7.021127014e-06)
(0 -2.382219461e-10 -4.99933354e-06)
(0 -3.272944368e-10 2.863111972e-07)
(0 -2.847330373e-10 6.006496806e-06)
(0 -1.125842758e-10 9.604601522e-06)
(0 1.126087647e-10 9.604601015e-06)
(0 2.847508657e-10 6.006495412e-06)
(0 3.273395599e-10 2.863092631e-07)
(0 2.382049194e-10 -4.999335518e-06)
(0 9.610931845e-11 -7.021128495e-06)
(0 2.546251993e-12 -3.876948717e-06)
(0 9.943443655e-13 -3.876922788e-06)
(0 -3.962289496e-11 -7.021046339e-06)
(0 -1.115812312e-10 -4.999250336e-06)
(0 -1.612651729e-10 2.863313548e-07)
(0 -1.438998857e-10 6.006425567e-06)
(0 -5.75318451e-11 9.604465511e-06)
(0 5.755384667e-11 9.604465005e-06)
(0 1.439260194e-10 6.006424173e-06)
(0 1.612519288e-10 2.863294205e-07)
(0 1.116297275e-10 -4.99925231e-06)
(0 3.963653139e-11 -7.021047825e-06)
(0 -1.002158931e-12 -3.876923336e-06)
(0 2.093959996e-12 -3.876915406e-06)
(0 -1.189382341e-11 -7.021010597e-06)
(0 -4.517781075e-11 -4.999208483e-06)
(0 -7.144821957e-11 2.86344884e-07)
(0 -6.639817181e-11 6.006393583e-06)
(0 -2.699699523e-11 9.604400183e-06)
(0 2.701579262e-11 9.604399677e-06)
(0 6.6410573e-11 6.006392189e-06)
(0 7.149156648e-11 2.863429506e-07)
(0 4.515612154e-11 -4.999210461e-06)
(0 1.189616829e-11 -7.021012078e-06)
(0 -2.057196644e-12 -3.876915956e-06)
(0 2.106950909e-12 -3.876915876e-06)
(0 2.963300697e-13 -7.020997656e-06)
(0 -1.294605351e-11 -4.99918928e-06)
(0 -2.591692762e-11 2.863535166e-07)
(0 -2.622552956e-11 6.006381663e-06)
(0 -1.101399952e-11 9.604372421e-06)
(0 1.103211819e-11 9.604371915e-06)
(0 2.624853413e-11 6.006380269e-06)
(0 2.589909893e-11 2.863515823e-07)
(0 1.299496132e-11 -4.999191254e-06)
(0 -2.830501751e-13 -7.020999142e-06)
(0 -2.116849671e-12 -3.876916424e-06)
(0 1.722696206e-12 -3.876919074e-06)
(0 4.572890741e-12 -7.020995275e-06)
(0 9.803832408e-13 -4.999181759e-06)
(0 -4.824878948e-12 2.863587864e-07)
(0 -6.98588856e-12 6.006379144e-06)
(0 -3.248501732e-12 9.604363276e-06)
(0 3.264574521e-12 9.60436277e-06)
(0 6.995415284e-12 6.00637775e-06)
(0 4.868282962e-12 2.863568523e-07)
(0 -1.005485092e-12 -4.999183737e-06)
(0 -4.57154588e-12 -7.020996758e-06)
(0 -1.68514273e-12 -3.876919624e-06)
(0 1.26318781e-12 -3.876922642e-06)
(0 5.247637369e-12 -7.020997088e-06)
(0 5.72037436e-12 -4.999179801e-06)
(0 3.557131934e-12 2.863618706e-07)
(0 1.148732849e-12 6.006380439e-06)
(0 1.152253802e-13 9.604362467e-06)
(0 -9.899132085e-14 9.604361961e-06)
(0 -1.127013881e-12 6.006379045e-06)
(0 -3.578009226e-12 2.863599351e-07)
(0 -5.67035797e-12 -4.999181777e-06)
(0 -5.23433206e-12 -7.020998576e-06)
(0 -1.27506395e-12 -3.87692319e-06)
(0 8.640217075e-13 -3.876925672e-06)
(0 4.471397371e-12 -7.021000031e-06)
(0 6.312014012e-12 -4.999180175e-06)
(0 5.835784675e-12 2.863635993e-07)
(0 3.798142634e-12 6.006382836e-06)
(0 1.281408212e-12 9.604364755e-06)
(0 -1.266779039e-12 9.604364248e-06)
(0 -3.790236259e-12 6.006381442e-06)
(0 -5.791416163e-12 2.86361664e-07)
(0 -6.339850365e-12 -4.999182156e-06)
(0 -4.47073685e-12 -7.021001516e-06)
(0 -8.256884829e-13 -3.876926222e-06)
(0 5.587791974e-13 -3.876927937e-06)
(0 3.36611097e-12 -7.021002804e-06)
(0 5.301379818e-12 -4.999181296e-06)
(0 5.515622628e-12 2.863645227e-07)
(0 3.999071974e-12 6.006385164e-06)
(0 1.443989595e-12 9.604367694e-06)
(0 -1.428859952e-12 9.604367188e-06)
(0 -3.97784088e-12 6.006383769e-06)
(0 -5.538854803e-12 2.863625862e-07)
(0 -5.250036021e-12 -4.999183273e-06)
(0 -3.352708559e-12 -7.021004294e-06)
(0 -5.726514346e-13 -3.876928485e-06)
(0 3.466592567e-13 -3.876929505e-06)
(0 2.313779611e-12 -7.021004979e-06)
(0 3.936259959e-12 -4.999182459e-06)
(0 4.342713197e-12 2.863649882e-07)
(0 3.300556237e-12 6.00638702e-06)
(0 1.225627892e-12 9.604370298e-06)
(0 -1.211780303e-12 9.604369791e-06)
(0 -3.293777086e-12 6.006385625e-06)
(0 -4.297219002e-12 2.863630518e-07)
(0 -3.966647341e-12 -4.99918444e-06)
(0 -2.313729845e-12 -7.021006465e-06)
(0 -3.07731677e-13 -3.876930056e-06)
(0 2.051604349e-13 -3.87693053e-06)
(0 1.521764765e-12 -7.021006519e-06)
(0 2.687246372e-12 -4.99918341e-06)
(0 3.09004732e-12 2.863652046e-07)
(0 2.416333234e-12 6.006388354e-06)
(0 9.108993732e-13 9.604372282e-06)
(0 -8.964082294e-13 9.604371775e-06)
(0 -2.395483251e-12 6.006386958e-06)
(0 -3.115541556e-12 2.86363267e-07)
(0 -2.634513062e-12 -4.999185389e-06)
(0 -1.50828905e-12 -7.02100801e-06)
(0 -2.20964626e-13 -3.876931079e-06)
(0 1.177912222e-13 -3.876931173e-06)
(0 9.304508677e-13 -7.021007532e-06)
(0 1.738153242e-12 -4.9991841e-06)
(0 2.053308849e-12 2.863652931e-07)
(0 1.639398111e-12 6.006389247e-06)
(0 6.268840754e-13 9.604373665e-06)
(0 -6.137077987e-13 9.604373158e-06)
(0 -1.633770642e-12 6.006387851e-06)
(0 -2.006830443e-12 2.863633557e-07)
(0 -1.770845102e-12 -4.999186082e-06)
(0 -9.311708268e-13 -7.02100902e-06)
(0 -7.841382469e-14 -3.876931723e-06)
(0 6.361645263e-14 -3.876931558e-06)
(0 5.655311454e-13 -7.02100816e-06)
(0 1.055651654e-12 -4.999184561e-06)
(0 1.287285952e-12 2.863653204e-07)
(0 1.046336163e-12 6.006389813e-06)
(0 4.038822186e-13 9.604374569e-06)
(0 -3.900812771e-13 9.604374062e-06)
(0 -1.025904531e-12 6.006388417e-06)
(0 -1.314927477e-12 2.863633819e-07)
(0 -1.001939773e-12 -4.999186542e-06)
(0 -5.521039203e-13 -7.021009652e-06)
(0 -8.132603357e-14 -3.876932107e-06)
(0 3.382590744e-14 -3.876931784e-06)
(0 3.061283838e-13 -7.021008523e-06)
(0 6.185344538e-13 -4.999184851e-06)
(0 7.673123902e-13 2.863653215e-07)
(0 6.346832319e-13 6.006390154e-06)
(0 2.494305447e-13 9.604375128e-06)
(0 -2.371715433e-13 9.604374622e-06)
(0 -6.3018441e-13 6.006388757e-06)
(0 -7.199296942e-13 2.863633833e-07)
(0 -6.535621192e-13 -4.999186834e-06)
(0 -3.075913436e-13 -7.021010012e-06)
(0 5.868850413e-15 -3.876932334e-06)
(0 1.579177646e-14 -3.87693191e-06)
(0 1.778631656e-13 -7.021008717e-06)
(0 3.300007217e-13 -4.99918502e-06)
(0 4.292941286e-13 2.863653137e-07)
(0 3.625419838e-13 6.006390349e-06)
(0 1.442807972e-13 9.604375458e-06)
(0 -1.313218521e-13 9.604374951e-06)
(0 -3.427601867e-13 6.006388952e-06)
(0 -4.589960594e-13 2.863633745e-07)
(0 -2.753502409e-13 -4.999187001e-06)
(0 -1.644587701e-13 -7.02101021e-06)
(0 -3.537636735e-14 -3.876932459e-06)
(0 7.810913312e-15 -3.876931981e-06)
(0 7.474984687e-14 -7.021008807e-06)
(0 1.706008847e-13 -4.999185112e-06)
(0 2.2415393e-13 2.863653046e-07)
(0 1.947516337e-13 6.006390453e-06)
(0 8.10956997e-14 9.60437564e-06)
(0 -6.971246618e-14 9.604375133e-06)
(0 -1.915305371e-13 6.006389056e-06)
(0 -1.761366893e-13 2.863633658e-07)
(0 -2.078971598e-13 -4.999187096e-06)
(0 -7.694552075e-14 -7.021010297e-06)
(0 3.211392439e-14 -3.876932531e-06)
(0 2.27617604e-15 -3.876932018e-06)
(0 4.621257162e-14 -7.021008837e-06)
(0 6.504301084e-14 -4.999185155e-06)
(0 1.007631728e-13 2.86365297e-07)
(0 9.261799943e-14 6.006390504e-06)
(0 4.000698799e-14 9.604375733e-06)
(0 -2.80677161e-14 9.604375226e-06)
(0 -7.341991894e-14 6.006389107e-06)
(0 -1.326317837e-13 2.863633574e-07)
(0 -9.692497611e-15 -4.999187137e-06)
(0 -3.280265409e-14 -7.02101033e-06)
(0 -2.37529108e-14 -3.876932567e-06)
(0 1.299767981e-15 -3.87693204e-06)
(0 2.546815944e-15 -7.021008832e-06)
(0 2.10943102e-14 -4.999185169e-06)
(0 3.420247927e-14 2.863652917e-07)
(0 3.630237861e-14 6.006390525e-06)
(0 1.936189217e-14 9.604375774e-06)
(0 -9.020433869e-15 9.604375267e-06)
(0 -3.443204552e-14 6.006389128e-06)
(0 1.42608346e-14 2.863633524e-07)
(0 -6.065498667e-14 -4.999187154e-06)
(0 -5.418384804e-15 -7.021010323e-06)
(0 3.871757518e-14 -3.876932591e-06)
(0 -6.215809773e-16 -3.876932052e-06)
(0 9.30913573e-15 -7.021008811e-06)
(0 -1.522164466e-14 -4.999185168e-06)
(0 -3.990612179e-15 2.863652884e-07)
(0 3.800870518e-15 6.00639053e-06)
(0 4.905634439e-15 9.604375787e-06)
(0 5.939353269e-15 9.60437528e-06)
(0 1.462032512e-14 6.006389132e-06)
(0 -2.995538769e-14 2.863633485e-07)
(0 7.105133676e-14 -4.99918715e-06)
(0 3.927273483e-15 -7.021010305e-06)
(0 -2.258471249e-14 -3.876932601e-06)
(0 2.355071865e-16 -3.876932061e-06)
(0 -1.559370106e-14 -7.021008781e-06)
(0 -1.883776058e-14 -4.999185158e-06)
(0 -2.003889007e-14 2.863652867e-07)
(0 -1.067477542e-14 6.006390526e-06)
(0 4.260077898e-16 9.604375784e-06)
(0 8.706587217e-15 9.604375277e-06)
(0 1.127503163e-14 6.006389128e-06)
(0 6.880457269e-14 2.863633471e-07)
(0 -2.28542041e-14 -4.999187143e-06)
(0 1.193244456e-14 -7.021010272e-06)
(0 3.980899967e-14 -3.876932612e-06)
(0 -9.935601826e-16 -3.876932067e-06)
(0 1.912320678e-15 -7.021008748e-06)
(0 -3.314817386e-14 -4.999185144e-06)
(0 -2.956504679e-14 2.863652861e-07)
(0 -1.922186974e-14 6.006390519e-06)
(0 -4.677525153e-15 9.604375775e-06)
(0 1.432405415e-14 9.604375267e-06)
(0 3.678992252e-14 6.006389121e-06)
(0 -6.260024693e-15 2.863633458e-07)
(0 8.924519089e-14 -4.999187127e-06)
(0 1.109867374e-14 -7.021010243e-06)
(0 -2.397125482e-14 -3.876932616e-06)
(0 2.403723664e-16 -3.876932073e-06)
(0 -1.81354584e-14 -7.021008716e-06)
(0 -2.464882757e-14 -4.999185129e-06)
(0 -3.003961187e-14 2.863652861e-07)
(0 -2.050161674e-14 6.00639051e-06)
(0 -3.869831238e-15 9.604375762e-06)
(0 1.182031251e-14 9.604375255e-06)
(0 1.960804437e-14 6.006389112e-06)
(0 7.894845944e-14 2.863633461e-07)
(0 -1.897304082e-14 -4.999187114e-06)
(0 1.377919272e-14 -7.021010207e-06)
(0 3.961136168e-14 -3.876932623e-06)
(0 -8.238849707e-16 -3.876932078e-06)
(0 2.125004334e-15 -7.021008684e-06)
(0 -3.317629852e-14 -4.999185113e-06)
(0 -3.149458334e-14 2.863652865e-07)
(0 -2.203098815e-14 6.006390501e-06)
(0 -6.262126605e-15 9.604375748e-06)
(0 1.468922196e-14 9.604375241e-06)
(0 3.85357553e-14 6.006389103e-06)
(0 -6.20578035e-15 2.863633461e-07)
(0 8.956366456e-14 -4.999187097e-06)
(0 1.064056631e-14 -7.021010179e-06)
(0 -2.578088053e-14 -3.876932627e-06)
(0 3.86815036e-16 -3.876932083e-06)
(0 -1.725495848e-14 -7.021008655e-06)
(0 -2.179547028e-14 -4.999185099e-06)
(0 -2.788679065e-14 2.863652872e-07)
(0 -1.969381882e-14 6.006390492e-06)
(0 -4.105496383e-15 9.604375735e-06)
(0 1.077065043e-14 9.604375228e-06)
(0 1.741853402e-14 6.006389095e-06)
(0 7.689076391e-14 2.863633471e-07)
(0 -2.369702617e-14 -4.999187084e-06)
(0 1.212075967e-14 -7.021010147e-06)
(0 3.921611714e-14 -3.876932633e-06)
(0 -7.559386091e-16 -3.876932087e-06)
(0 3.719419803e-15 -7.021008627e-06)
(0 -2.929805576e-14 -4.999185085e-06)
(0 -2.756960475e-14 2.863652878e-07)
(0 -1.957944516e-14 6.006390484e-06)
(0 -5.859461645e-15 9.604375723e-06)
(0 1.303665556e-14 9.604375216e-06)
(0 3.520467185e-14 6.006389087e-06)
(0 -1.172151285e-14 2.863633474e-07)
(0 8.568986553e-14 -4.999187068e-06)
(0 8.805567768e-15 -7.021010121e-06)
(0 -2.738571806e-14 -3.876932637e-06)
(0 4.217497587e-16 -3.876932092e-06)
(0 -1.600001721e-14 -7.021008602e-06)
(0 -1.731813446e-14 -4.999185072e-06)
(0 -2.331192959e-14 2.863652885e-07)
(0 -1.655227427e-14 6.006390477e-06)
(0 -3.367576888e-15 9.604375712e-06)
(0 8.904397726e-15 9.604375204e-06)
(0 1.294486123e-14 6.006389079e-06)
(0 7.22104056e-14 2.863633485e-07)
(0 -2.977826293e-14 -4.999187057e-06)
(0 1.018059646e-14 -7.021010094e-06)
(0 3.874858418e-14 -3.876932642e-06)
(0 -7.372581925e-16 -3.876932096e-06)
(0 5.205651425e-15 -7.02100858e-06)
(0 -2.49639379e-14 -4.999185061e-06)
(0 -2.278926335e-14 2.863652892e-07)
(0 -1.62532131e-14 6.006390471e-06)
(0 -5.050124834e-15 9.604375702e-06)
(0 1.110856036e-14 9.604375194e-06)
(0 3.092506665e-14 6.006389073e-06)
(0 -1.804084437e-14 2.863633489e-07)
(0 8.111077105e-14 -4.999187044e-06)
(0 7.053197567e-15 -7.021010073e-06)
(0 -2.89039723e-14 -3.876932645e-06)
(0 4.721387656e-16 -3.8769321e-06)
(0 -1.48566201e-14 -7.021008559e-06)
(0 -1.292448397e-14 -4.99918505e-06)
(0 -1.862790725e-14 2.863652899e-07)
(0 -1.314569217e-14 6.006390465e-06)
(0 -2.455731121e-15 9.604375692e-06)
(0 6.795844835e-15 9.604375185e-06)
(0 8.288090707e-15 6.006389067e-06)
(0 6.713465575e-14 2.863633498e-07)
(0 -3.578899654e-14 -4.999187035e-06)
(0 8.301589944e-15 -7.021010052e-06)
(0 3.817750545e-14 -3.87693265e-06)
(0 -7.588019249e-16 -3.876932103e-06)
(0 6.374957943e-15 -7.021008541e-06)
(0 -2.077070177e-14 -4.999185041e-06)
(0 -1.820734661e-14 2.863652904e-07)
(0 -1.29515451e-14 6.00639046e-06)
(0 -4.204046098e-15 9.604375684e-06)
(0 9.050842302e-15 9.604375177e-06)
(0 2.657252793e-14 6.006389062e-06)
(0 -2.419786665e-14 2.863633501e-07)
(0 7.645809255e-14 -4.999187025e-06)
(0 5.338419353e-15 -7.021010035e-06)
(0 -3.030717502e-14 -3.876932652e-06)
(0 3.690440802e-16 -3.876932106e-06)
(0 -1.388954144e-14 -7.021008526e-06)
(0 -8.70659872e-15 -4.999185033e-06)
(0 -1.398049608e-14 2.863652908e-07)
(0 -9.942748672e-15 6.006390455e-06)
(0 -1.722195333e-15 9.604375677e-06)
(0 4.716835829e-15 9.60437517e-06)
(0 3.68822007e-15 6.006389058e-06)
(0 6.201583046e-14 2.863633509e-07)
(0 -4.146904618e-14 -4.999187018e-06)
(0 6.482921788e-15 -7.021010018e-06)
(0 3.757576187e-14 -3.876932656e-06)
(0 -8.300511141e-16 -3.876932108e-06)
(0 7.505293552e-15 -7.021008512e-06)
(0 -1.66547129e-14 -4.999185027e-06)
(0 -1.367170023e-14 2.863652913e-07)
(0 -9.82365286e-15 6.006390451e-06)
(0 -3.574532701e-15 9.604375671e-06)
(0 6.978935085e-15 9.604375164e-06)
(0 2.217676566e-14 6.006389054e-06)
(0 -3.009233977e-14 2.863633511e-07)
(0 7.174627156e-14 -4.99918701e-06)
(0 3.750854116e-15 -7.021010005e-06)
(0 -3.153003727e-14 -3.876932658e-06)
(0 3.773976888e-16 -3.87693211e-06)
(0 -1.287529673e-14 -7.021008501e-06)
(0 -4.608079823e-15 -4.999185021e-06)
(0 -9.600778512e-15 2.863652916e-07)
(0 -6.922069608e-15 6.006390448e-06)
(0 -1.02916404e-15 9.604375666e-06)
(0 2.525406013e-15 9.604375159e-06)
(0 -8.969079457e-16 6.006389051e-06)
(0 5.687300825e-14 2.863633516e-07)
(0 -4.699159377e-14 -4.999187005e-06)
(0 4.797530018e-15 -7.021009993e-06)
(0 3.688989616e-14 -3.87693266e-06)
(0 -8.639793239e-16 -3.876932112e-06)
(0 8.534960049e-15 -7.021008492e-06)
(0 -1.266991671e-14 -4.999185016e-06)
(0 -9.389863632e-15 2.863652919e-07)
(0 -6.910147405e-15 6.006390446e-06)
(0 -2.991852389e-15 9.604375662e-06)
(0 4.658405697e-15 9.604375155e-06)
(0 1.776160571e-14 6.006389048e-06)
(0 -3.59072277e-14 2.863633517e-07)
(0 6.689211246e-14 -4.999187e-06)
(0 2.180775611e-15 -7.021009985e-06)
(0 -3.273348307e-14 -3.876932662e-06)
(0 3.658079187e-16 -3.876932113e-06)
(0 -1.187679938e-14 -7.021008486e-06)
(0 -7.682551697e-16 -4.999185013e-06)
(0 -5.464920109e-15 2.863652921e-07)
(0 -4.096328731e-15 6.006390444e-06)
(0 -6.237400046e-16 9.604375659e-06)
(0 2.101276693e-16 9.604375152e-06)
(0 -5.584269947e-15 6.006389046e-06)
(0 5.14937944e-14 2.86363352e-07)
(0 -5.219408945e-14 -4.999186997e-06)
(0 3.134186724e-15 -7.021009978e-06)
(0 3.602375233e-14 -3.876932663e-06)
(0 -8.272901709e-16 -3.876932114e-06)
(0 9.483555894e-15 -7.021008481e-06)
(0 -8.907544878e-15 -4.999185011e-06)
(0 -5.371415159e-15 2.863652923e-07)
(0 -4.215662516e-15 6.006390443e-06)
(0 -2.766120871e-15 9.604375657e-06)
(0 2.325041551e-15 9.60437515e-06)
(0 1.313508512e-14 6.006389045e-06)
(0 -4.159174598e-14 2.863633519e-07)
(0 6.195707635e-14 -4.999186995e-06)
(0 7.075950543e-16 -7.021009974e-06)
(0 -3.37316314e-14 -3.876932664e-06)
(0 3.364724281e-16 -3.876932114e-06)
(0 -1.106345084e-14 -7.021008479e-06)
(0 2.850478107e-15 -4.999185009e-06)
(0 -1.59048206e-15 2.863652925e-07)
(0 -1.650271451e-15 6.006390442e-06)
(0 -5.599852673e-16 9.604375656e-06)
(0 -2.27416642e-15 9.604375149e-06)
(0 -1.016785359e-14 6.006389044e-06)
(0 4.610287967e-14 2.863633519e-07)
(0 -5.718675252e-14 -4.999186994e-06)
(0 1.477854769e-15 -7.021009972e-06)
(0 3.513134139e-14 -3.876932664e-06)
(0 -8.79857714e-16 -3.876932114e-06)
(0 1.019165181e-14 -7.021008479e-06)
(0 -5.52447214e-15 -4.999185009e-06)
(0 -1.804974895e-15 2.863652926e-07)
(0 -2.066951879e-15 6.006390442e-06)
(0 -2.835734432e-15 9.604375656e-06)
(0 -2.260345186e-16 9.604375148e-06)
(0 8.728882023e-15 6.006389043e-06)
(0 -4.686007574e-14 2.863633516e-07)
(0 5.688525971e-14 -4.999186994e-06)
(0 -7.672233349e-16 -7.021009972e-06)
(0 -3.465609141e-14 -3.876932665e-06)
(0 2.370075535e-16 -3.876932114e-06)
(0 -1.031322243e-14 -7.02100848e-06)
(0 5.900136151e-15 -4.99918501e-06)
(0 1.569620791e-15 2.863652927e-07)
(0 1.890711725e-16 6.006390442e-06)
(0 -7.729145863e-16 9.604375656e-06)
(0 -4.784233864e-15 9.604375149e-06)
(0 -1.454954316e-14 6.006389043e-06)
(0 4.092063973e-14 2.863633511e-07)
(0 -6.173918412e-14 -4.999186995e-06)
(0 -1.246477042e-16 -7.021009975e-06)
(0 3.409930201e-14 -3.876932664e-06)
(0 -9.646480379e-16 -3.876932113e-06)
(0 1.074016768e-14 -7.021008484e-06)
(0 -2.76085798e-15 -4.999185011e-06)
(0 8.695819806e-16 2.863652928e-07)
(0 -5.554324339e-16 6.006390443e-06)
(0 -3.207595453e-15 9.604375658e-06)
(0 -2.732336115e-15 9.60437515e-06)
(0 4.523011066e-15 6.006389044e-06)
(0 -5.153736383e-14 2.863633505e-07)
(0 5.220894605e-14 -4.999186998e-06)
(0 -2.095108923e-15 -7.021009978e-06)
(0 -3.540921239e-14 -3.876932663e-06)
(0 1.613798731e-16 -3.876932112e-06)
(0 -9.837077775e-15 -7.021008488e-06)
(0 8.210039961e-15 -4.999185013e-06)
(0 3.726338668e-15 2.863652929e-07)
(0 1.243887441e-15 6.006390444e-06)
(0 -1.416306693e-15 9.604375659e-06)
(0 -7.205333589e-15 9.604375151e-06)
(0 -1.838650132e-14 6.006389045e-06)
(0 3.633951103e-14 2.863633496e-07)
(0 -6.540122828e-14 -4.999187001e-06)
(0 -1.296447346e-15 -7.021009985e-06)
(0 3.309114196e-14 -3.876932662e-06)
(0 -1.090829016e-15 -3.87693211e-06)
(0 1.085417292e-14 -7.021008495e-06)
(0 -1.102429447e-15 -4.999185016e-06)
(0 2.389206712e-15 2.863652929e-07)
(0 -5.381015967e-17 6.006390446e-06)
(0 -4.098746925e-15 9.604375662e-06)
(0 -5.044473197e-15 9.604375153e-06)
(0 1.142581609e-15 6.006389046e-06)
(0 -5.506649376e-14 2.863633486e-07)
(0 4.855382277e-14 -4.999187006e-06)
(0 -2.908032035e-15 -7.021009992e-06)
(0 -3.599834232e-14 -3.876932661e-06)
(0 -1.024681768e-16 -3.876932108e-06)
(0 -9.921324529e-15 -7.021008502e-06)
(0 8.913432529e-15 -4.999185019e-06)
(0 4.272622762e-15 2.863652931e-07)
(0 9.616843219e-16 6.006390448e-06)
(0 -2.59008363e-15 9.604375664e-06)
(0 -9.139073361e-15 9.604375155e-06)
(0 -2.087631282e-14 6.006389046e-06)
(0 3.338125198e-14 2.863633472e-07)
(0 -6.743558148e-14 -4.99918701e-06)
(0 -1.756197868e-15 -7.021010003e-06)
(0 3.22306388e-14 -3.876932658e-06)
(0 -1.446867858e-15 -3.876932105e-06)
(0 9.967703772e-15 -7.02100851e-06)
(0 -1.574748584e-15 -4.999185023e-06)
(0 1.457408651e-15 2.863652931e-07)
(0 -1.466613366e-15 6.00639045e-06)
(0 -5.636316501e-15 9.604375666e-06)
(0 -6.468025225e-15 9.604375157e-06)
(0 -2.334092574e-16 6.006389047e-06)
(0 -5.576354044e-14 2.863633457e-07)
(0 4.713667277e-14 -4.999187016e-06)
(0 -2.651869477e-15 -7.021010012e-06)
(0 -3.621342858e-14 -3.876932657e-06)
(0 -5.655190244e-16 -3.876932102e-06)
(0 -1.17826565e-14 -7.021008519e-06)
(0 6.336874869e-15 -4.999185026e-06)
(0 1.025427183e-15 2.863652929e-07)
(0 -2.170992592e-15 6.006390451e-06)
(0 -4.632378975e-15 9.604375667e-06)
(0 -9.699781126e-15 9.604375158e-06)
(0 -2.001820378e-14 6.006389047e-06)
(0 3.450939656e-14 2.863633438e-07)
(0 -6.579636952e-14 -4.999187021e-06)
(0 -3.660223098e-16 -7.021010023e-06)