/*--------------------------------*- C++ -*----------------------------------*\
| =========                 |                                                 |
| \\      /  F ield         | OpenFOAM: The Open Source CFD Toolbox           |
|  \\    /   O peration     | Version:  v2012                                 |
|   \\  /    A nd           | Website:  www.openfoam.com                      |
|    \\/     M anipulation  |                                                 |
\*---------------------------------------------------------------------------*/
FoamFile
{
    version     2.0;
    format      ascii;
    class       volScalarField;
    location    "0";
    object      Plift;
}
// * * * * * * * * * * * * * * * * * * * * * * * * * * * * * * * * * * * * * //

dimensions      [0 2 -2 0 0 0 0];


internalField   nonuniform List<scalar> 
1080
(
1.000000421
1.000000418
1.000000411
1.000000395
1.000000367
1.000000356
1.000000361
1.000000361
1.000000355
1.000000334
1.000000322
1.000000318
1.000000413
1.00000041
1.000000404
1.000000391
1.000000369
1.000000359
1.000000358
1.000000356
1.000000356
1.000000339
1.000000329
1.000000326
1.000000393
1.000000391
1.000000386
1.000000379
1.00000037
1.000000363
1.00000036
1.000000356
1.000000351
1.000000345
1.00000034
1.000000338
1.00000038
1.000000378
1.000000375
1.00000037
1.000000367
1.000000361
1.000000358
1.000000362
1.000000351
1.000000347
1.000000345
1.000000343
1.000000379
1.000000378
1.000000375
1.000000372
1.000000369
1.000000363
1.000000354
1.000000356
1.000000356
1.000000354
1.000000352
1.000000351
1.000000379
1.000000378
1.000000377
1.000000375
1.000000371
1.000000367
1.00000036
1.000000352
1.000000359
1.000000361
1.000000359
1.000000358
1.000000369
1.000000369
1.000000368
1.000000368
1.000000368
1.000000366
1.000000365
1.00000036
1.000000357
1.000000355
1.000000354
1.000000353
1.000000356
1.000000355
1.000000354
1.000000356
1.000000365
1.000000369
1.000000368
1.000000362
1.00000035
1.000000345
1.000000345
1.000000344
1.000000358
1.000000358
1.000000356
1.000000355
1.000000357
1.000000366
1.000000366
1.000000358
1.000000353
1.000000351
1.00000035
1.000000349
1.000000365
1.000000366
1.000000368
1.000000366
1.000000356
1.000000352
1.000000353
1.000000359
1.000000361
1.00000036
1.000000358
1.000000357
1.000000359
1.000000361
1.00000037
1.000000371
1.000000364
1.000000352
1.000000349
1.00000035
1.00000035
1.000000351
1.000000353
1.000000354
1.000000362
1.000000362
1.000000361
1.00000036
1.000000359
1.000000356
1.000000351
1.000000341
1.000000338
1.00000034
1.000000349
1.000000352
1.000000369
1.000000366
1.000000356
1.000000353
1.000000353
1.000000353
1.000000351
1.000000348
1.000000346
1.000000345
1.000000345
1.000000345
1.000000366
1.000000364
1.000000361
1.000000359
1.000000358
1.000000358
1.000000358
1.000000359
1.000000358
1.000000355
1.000000345
1.000000342
1.000000363
1.000000363
1.000000364
1.000000363
1.000000363
1.000000363
1.000000363
1.000000363
1.000000362
1.00000036
1.000000357
1.000000356
1.000000353
1.000000353
1.000000352
1.000000352
1.000000352
1.000000352
1.000000352
1.000000352
1.000000352
1.000000351
1.000000352
1.000000352
1.000000333
1.000000334
1.000000337
1.000000338
1.000000339
1.000000339
1.000000339
1.000000339
1.000000339
1.000000337
1.000000338
1.000000338
1.000000326
1.000000329
1.000000337
1.00000034
1.00000034
1.00000034
1.000000339
1.000000339
1.000000341
1.000000344
1.000000346
1.000000345
1.000000334
1.000000335
1.000000338
1.00000034
1.00000034
1.00000034
1.000000339
1.000000338
1.000000341
1.000000351
1.000000356
1.000000358
1.000000333
1.000000333
1.000000333
1.000000334
1.000000334
1.000000336
1.000000337
1.000000338
1.000000339
1.000000339
1.000000342
1.000000351
1.000000331
1.00000033
1.000000328
1.000000326
1.000000326
1.00000033
1.000000341
1.000000345
1.000000343
1.000000334
1.000000331
1.000000331
1.000000339
1.000000336
1.000000328
1.000000326
1.000000326
1.00000033
1.000000341
1.000000345
1.000000344
1.000000341
1.000000337
1.000000327
1.000000339
1.000000337
1.000000335
1.000000334
1.000000334
1.000000334
1.000000337
1.000000338
1.000000338
1.000000339
1.000000338
1.000000335
1.000000331
1.000000331
1.000000333
1.000000333
1.000000334
1.000000335
1.000000334
1.000000332
1.000000332
1.000000332
1.000000332
1.000000332
1.000000331
1.000000331
1.000000332
1.000000331
1.000000334
1.000000339
1.000000331
1.000000326
1.000000325
1.000000325
1.000000326
1.000000329
1.000000339
1.000000339
1.000000339
1.000000339
1.000000339
1.000000334
1.000000324
1.000000321
1.000000323
1.000000324
1.000000328
1.000000338
1.000000339
1.000000339
1.000000339
1.000000338
1.000000335
1.000000324
1.00000032
1.000000322
1.00000033
1.000000332
1.000000332
1.000000332
1.000000331
1.000000331
1.000000331
1.00000033
1.000000328
1.000000326
1.000000327
1.000000328
1.000000331
1.000000332
1.00000033
1.00000032
1.000000324
1.000000324
1.000000324
1.000000323
1.000000323
1.000000325
1.000000325
1.000000326
1.000000326
1.000000325
1.000000324
1.000000321
1.000000316
1.000000317
1.000000318
1.000000321
1.000000323
1.000000324
1.000000324
1.000000323
1.00000032
1.000000318
1.000000318
1.000000319
1.000000308
1.000000308
1.000000311
1.000000321
1.000000324
1.000000324
1.000000324
1.000000322
1.000000313
1.000000311
1.000000311
1.000000311
1.000000308
1.000000308
1.000000308
1.000000308
1.00000031
1.00000031
1.000000309
1.000000308
1.000000306
1.000000304
1.000000304
1.000000304
1.000000315
1.000000315
1.000000312
1.000000301
1.000000296
1.000000295
1.000000295
1.000000294
1.000000296
1.000000296
1.000000296
1.000000296
1.000000308
1.000000307
1.000000306
1.000000301
1.00000029
1.000000287
1.000000287
1.000000287
1.000000288
1.000000288
1.000000288
1.000000288
1.000000286
1.000000285
1.000000285
1.000000287
1.000000287
1.000000288
1.000000288
1.000000288
1.000000288
1.000000288
1.000000288
1.000000288
1.000000278
1.000000278
1.000000278
1.000000282
1.00000029
1.000000289
1.000000288
1.000000288
1.000000288
1.000000288
1.000000288
1.000000288
1.000000286
1.000000286
1.000000285
1.000000284
1.000000282
1.000000274
1.000000272
1.000000272
1.000000273
1.000000273
1.000000273
1.000000273
1.000000279
1.000000279
1.000000277
1.000000268
1.000000264
1.000000264
1.000000264
1.000000265
1.000000266
1.000000266
1.000000266
1.000000265
1.000000257
1.000000257
1.000000257
1.000000256
1.000000259
1.000000268
1.000000272
1.00000027
1.000000267
1.000000265
1.000000265
1.000000265
1.000000249
1.000000249
1.000000252
1.000000262
1.000000266
1.000000267
1.000000266
1.000000262
1.000000252
1.000000249
1.00000025
1.00000025
1.000000258
1.000000258
1.000000259
1.000000261
1.00000026
1.000000255
1.000000245
1.000000242
1.000000242
1.000000242
1.000000242
1.000000242
1.00000025
1.000000251
1.000000251
1.000000247
1.000000237
1.000000234
1.000000234
1.000000237
1.000000247
1.000000249
1.000000249
1.000000249
1.000000228
1.000000228
1.000000228
1.000000227
1.000000227
1.00000023
1.00000024
1.000000244
1.000000246
1.000000248
1.000000248
1.000000248
1.000000221
1.000000221
1.00000022
1.000000223
1.000000233
1.000000237
1.00000024
1.000000241
1.00000024
1.000000241
1.000000241
1.000000241
1.000000228
1.000000228
1.000000229
1.00000023
1.000000233
1.000000235
1.000000234
1.000000234
1.000000233
1.000000233
1.000000233
1.000000233
1.000000228
1.000000228
1.000000228
1.000000229
1.000000228
1.000000228
1.000000226
1.000000226
1.000000226
1.000000226
1.000000226
1.000000225
1.000000213
1.000000213
1.000000213
1.000000213
1.000000213
1.000000215
1.000000217
1.000000219
1.000000218
1.000000218
1.000000218
1.000000218
1.00000019
1.00000019
1.00000019
1.00000019
1.00000019
1.000000192
1.000000202
1.000000207
1.000000209
1.000000211
1.00000021
1.00000021
1.000000183
1.000000183
1.000000183
1.000000183
1.000000182
1.000000182
1.000000182
1.000000185
1.000000195
1.000000199
1.000000202
1.000000202
1.000000191
1.000000191
1.00000019
1.00000019
1.00000019
1.000000187
1.000000178
1.000000175
1.000000175
1.000000178
1.000000189
1.000000193
1.00000019
1.00000019
1.00000019
1.000000189
1.000000188
1.000000187
1.000000184
1.00000018
1.00000017
1.000000167
1.00000017
1.000000178
1.000000183
1.000000183
1.000000182
1.000000182
1.000000181
1.00000018
1.000000181
1.00000018
1.000000177
1.000000173
1.000000164
1.000000164
1.000000176
1.000000176
1.000000175
1.000000177
1.000000179
1.000000181
1.000000181
1.000000181
1.000000182
1.00000018
1.000000177
1.000000176
1.000000168
1.00000017
1.000000172
1.000000177
1.000000186
1.000000189
1.000000189
1.000000189
1.000000189
1.000000188
1.000000188
1.000000186
1.000000167
1.00000017
1.00000018
1.000000183
1.000000181
1.000000181
1.000000181
1.000000182
1.000000182
1.000000181
1.000000179
1.000000171
1.000000175
1.000000175
1.000000176
1.000000174
1.000000168
1.000000167
1.000000167
1.000000167
1.000000167
1.000000166
1.000000165
1.000000163
1.000000174
1.000000171
1.000000161
1.00000016
1.000000167
1.000000168
1.000000167
1.000000168
1.000000169
1.000000172
1.000000173
1.000000175
1.000000173
1.000000172
1.000000169
1.000000167
1.000000168
1.000000168
1.000000167
1.000000167
1.00000017
1.000000179
1.000000182
1.000000182
1.000000177
1.000000177
1.000000179
1.000000176
1.000000167
1.000000164
1.000000165
1.000000165
1.000000166
1.000000167
1.000000167
1.000000168
1.000000168
1.000000168
1.000000168
1.000000167
1.000000164
1.000000163
1.000000165
1.000000167
1.000000166
1.000000159
1.000000158
1.000000159
1.000000157
1.000000157
1.000000157
1.000000157
1.000000159
1.000000159
1.000000161
1.000000162
1.000000162
1.000000162
1.000000162
1.000000162
1.000000156
1.000000156
1.000000156
1.000000157
1.000000157
1.000000158
1.000000158
1.000000158
1.000000158
1.000000159
1.000000159
1.000000159
1.000000156
1.000000156
1.000000156
1.000000156
1.000000157
1.000000158
1.000000157
1.000000156
1.000000156
1.000000156
1.000000155
1.000000155
1.000000154
1.000000154
1.000000154
1.000000155
1.000000155
1.000000156
1.000000155
1.000000155
1.000000154
1.000000153
1.000000153
1.000000153
1.000000154
1.000000154
1.000000154
1.000000154
1.000000154
1.000000154
1.000000154
1.000000154
1.000000153
1.000000152
1.000000152
1.000000151
1.000000153
1.000000153
1.000000154
1.000000154
1.000000153
1.000000153
1.000000153
1.000000152
1.000000152
1.000000152
1.000000152
1.000000152
1.000000153
1.000000153
1.000000153
1.000000153
1.000000153
1.000000152
1.000000152
1.000000151
1.000000151
1.000000151
1.000000151
1.000000151
1.000000154
1.000000154
1.000000153
1.000000153
1.000000153
1.000000152
1.000000151
1.000000151
1.00000015
1.00000015
1.000000149
1.000000149
1.000000154
1.000000154
1.000000153
1.000000152
1.000000152
1.000000152
1.000000151
1.00000015
1.00000015
1.000000149
1.000000148
1.000000147
1.000000152
1.000000151
1.000000152
1.000000151
1.00000015
1.00000015
1.000000149
1.000000149
1.000000148
1.000000147
1.000000147
1.000000146
1.000000149
1.000000149
1.000000148
1.000000149
1.000000148
1.000000147
1.000000147
1.000000146
1.000000145
1.000000145
1.000000145
1.000000145
1.000000146
1.000000146
1.000000145
1.000000146
1.000000146
1.000000145
1.000000145
1.000000144
1.000000143
1.000000143
1.000000142
1.000000143
1.000000143
1.000000143
1.000000143
1.000000142
1.000000142
1.000000142
1.000000141
1.000000142
1.000000141
1.00000014
1.000000139
1.000000139
1.000000138
1.000000139
1.000000139
1.000000138
1.000000138
1.000000139
1.000000138
1.000000137
1.000000137
1.000000137
1.000000136
1.000000135
1.000000132
1.000000132
1.000000133
1.000000134
1.000000134
1.000000135
1.000000134
1.000000133
1.000000132
1.000000131
1.000000131
1.00000013
1.000000126
1.000000127
1.000000127
1.000000129
1.00000013
1.000000129
1.000000128
1.000000128
1.000000126
1.000000125
1.000000124
1.000000124
1.000000121
1.000000121
1.000000122
1.000000123
1.000000123
1.000000123
1.000000122
1.000000122
1.000000121
1.000000119
1.000000118
1.000000118
1.000000113
1.000000114
1.000000116
1.000000116
1.000000117
1.000000118
1.000000117
1.000000117
1.000000115
1.000000113
1.000000112
1.000000111
1.000000103
1.000000104
1.000000106
1.000000109
1.000000112
1.000000114
1.000000114
1.000000111
1.000000108
1.000000105
1.000000103
1.0000001
1.000000086
1.000000089
1.000000093
1.0000001
1.000000107
1.000000111
1.000000112
1.000000108
1.000000101
1.000000095
1.000000089
1.000000084
1.000000062
1.000000067
1.000000077
1.00000009
1.000000104
1.000000112
1.000000115
1.000000109
1.000000096
1.000000083
1.00000007
1.000000062
1.000000028
1.000000038
1.000000057
1.000000081
1.000000106
1.000000123
1.000000126
1.000000113
1.000000091
1.000000066
1.000000044
1.000000032
0.9999999883
1.000000004
1.000000035
1.000000076
1.000000117
1.000000144
1.000000146
1.000000125
1.000000087
1.000000045
1.000000012
0.9999999956
0.9999999519
0.9999999696
1.000000012
1.000000074
1.000000136
1.000000175
1.000000177
1.00000014
1.000000081
1.000000018
0.9999999755
0.9999999579
0.9999999266
0.9999999403
0.9999999904
1.000000073
1.000000159
1.000000212
1.00000021
1.000000155
1.000000068
0.9999999862
0.9999999396
0.9999999285
0.9999999282
0.9999999178
0.9999999636
1.000000065
1.000000175
1.000000244
1.000000239
1.000000163
1.000000049
0.9999999504
0.9999999081
0.9999999224
0.9999999693
0.9999999004
0.9999999277
1.000000041
1.000000171
1.000000252
1.000000248
1.00000016
1.000000026
0.999999913
0.9999998881
0.9999999596
1.000000058
0.9999999055
0.999999916
1.000000012
1.000000116
1.000000179
1.000000179
1.000000113
1.000000007
0.999999909
0.9999998985
1.00000005
1.000000101
1.000000086
1.000000092
1.000000022
0.9999999294
0.999999868
0.9999998688
0.9999999313
1.000000024
1.000000092
1.000000084
1.000000097
1.000000044
1.000000127
1.00000013
1.000000023
0.9999998936
0.9999998116
0.999999812
0.9999998949
1.000000024
1.000000131
1.000000127
1.000000043
)
;

boundaryField
{
    inlet
    {
        type            zeroGradient;
    }
    walls
    {
        type            zeroGradient;
    }
    outlet
    {
        type            fixedValue;
        value           uniform 1;
    }
    defaultFaces
    {
        type            empty;
    }
}


// ************************************************************************* //
