/*--------------------------------*- C++ -*----------------------------------*\
| =========                 |                                                 |
| \\      /  F ield         | OpenFOAM: The Open Source CFD Toolbox           |
|  \\    /   O peration     | Version:  v2012                                 |
|   \\  /    A nd           | Website:  www.openfoam.com                      |
|    \\/     M anipulation  |                                                 |
\*---------------------------------------------------------------------------*/
FoamFile
{
    version     2.0;
    format      ascii;
    class       volVectorField;
    location    "0";
    object      U;
}
// * * * * * * * * * * * * * * * * * * * * * * * * * * * * * * * * * * * * * //

dimensions      [0 1 -1 0 0 0 0];


//internalField   nonuniform List<vector>
internalField   uniform (0 0 0); 
/*42000
(
(5.968383858e-07 5.968371892e-07 1.108884496e-08)
(5.345734532e-07 6.549322808e-07 4.18881819e-08)
(4.214673795e-07 6.958784409e-07 6.487604936e-08)
(2.695392341e-07 7.226646637e-07 7.921187579e-08)
(9.257423954e-08 7.362323252e-07 8.631969824e-08)
(-9.257391317e-08 7.362324442e-07 8.631972308e-08)
(-2.695389357e-07 7.226650258e-07 7.921195722e-08)
(-4.214670221e-07 6.958790309e-07 6.487619609e-08)
(-5.345730579e-07 6.549331105e-07 4.188837973e-08)
(-5.968375775e-07 5.968383525e-07 1.108901768e-08)
(6.549331476e-07 5.345727794e-07 4.188824014e-08)
(5.806370214e-07 5.806361147e-07 6.695999705e-08)
(4.573439685e-07 6.141521989e-07 8.629932507e-08)
(2.919706282e-07 6.362874943e-07 9.898590924e-08)
(1.002771801e-07 6.475087825e-07 1.054976815e-07)
(-1.00276862e-07 6.475089338e-07 1.054977083e-07)
(-2.91970303e-07 6.362879319e-07 9.898599278e-08)
(-4.573435812e-07 6.141528868e-07 8.629946351e-08)
(-5.80636497e-07 5.806368776e-07 6.696015602e-08)
(-6.549326453e-07 5.345734904e-07 4.188836837e-08)
(6.958791735e-07 4.214668585e-07 6.487605358e-08)
(6.141531022e-07 4.57343252e-07 8.629931222e-08)
(4.82452257e-07 4.82451483e-07 1.046078184e-07)
(3.076652221e-07 4.98996194e-07 1.173224043e-07)
(1.056421774e-07 5.072971708e-07 1.238920782e-07)
(-1.056418035e-07 5.072972673e-07 1.238921066e-07)
(-3.076648417e-07 4.989964721e-07 1.173224923e-07)
(-4.824518259e-07 4.824519033e-07 1.046079606e-07)
(-6.141525917e-07 4.573437185e-07 8.629948465e-08)
(-6.958787488e-07 4.214671997e-07 6.487622735e-08)
(7.226652476e-07 2.695387954e-07 7.921180005e-08)
(6.362882534e-07 2.919700371e-07 9.898584047e-08)
(4.989969191e-07 3.076645395e-07 1.173223564e-07)
(3.17943896e-07 3.17943197e-07 1.304277426e-07)
(1.091357726e-07 3.230676578e-07 1.372093971e-07)
(-1.091353658e-07 3.230676989e-07 1.372094336e-07)
(-3.179434843e-07 3.179433155e-07 1.304278507e-07)
(-4.989964779e-07 3.07664716e-07 1.173225299e-07)
(-6.362877711e-07 2.919702137e-07 9.89860552e-08)
(-7.226648633e-07 2.695389035e-07 7.921203795e-08)
(7.362327562e-07 9.257384011e-08 8.631955432e-08)
(6.475093523e-07 1.002766594e-07 1.054975544e-07)
(5.07297808e-07 1.056415395e-07 1.23891978e-07)
(3.230683451e-07 1.091350798e-07 1.372093414e-07)
(1.10872214e-07 1.108714837e-07 1.441048732e-07)
(-1.10871769e-07 1.108714815e-07 1.441049151e-07)
(-3.230678958e-07 1.091350708e-07 1.37209465e-07)
(-5.072973443e-07 1.056415221e-07 1.238921733e-07)
(-6.475088841e-07 1.00276613e-07 1.054978003e-07)
(-7.362323774e-07 9.257374715e-08 8.631983187e-08)
(7.362327276e-07 -9.257421707e-08 8.631951451e-08)
(6.475093011e-07 -1.002772866e-07 1.054975255e-07)
(5.072977943e-07 -1.056423726e-07 1.238919569e-07)
(3.230683567e-07 -1.091360278e-07 1.372093204e-07)
(1.108722298e-07 -1.108725145e-07 1.441048514e-07)
(-1.108717503e-07 -1.108725633e-07 1.441048933e-07)
(-3.230678734e-07 -1.0913617e-07 1.372094443e-07)
(-5.072973004e-07 -1.05642594e-07 1.238921535e-07)
(-6.475088092e-07 -1.002775731e-07 1.054977768e-07)
(-7.362323099e-07 -9.257452796e-08 8.631980382e-08)
(7.226651462e-07 -2.695390907e-07 7.921166786e-08)
(6.362880942e-07 -2.919705997e-07 9.898574707e-08)
(4.989968882e-07 -3.076653089e-07 1.173222894e-07)
(3.179439347e-07 -3.179440822e-07 1.304276793e-07)
(1.091358221e-07 -3.230686266e-07 1.372093335e-07)
(-1.091353116e-07 -3.230687238e-07 1.372093707e-07)
(-3.179434158e-07 -3.179443645e-07 1.304277894e-07)
(-4.989963566e-07 -3.076657472e-07 1.173224682e-07)
(-6.362875552e-07 -2.919711435e-07 9.898598313e-08)
(-7.226646512e-07 -2.69539658e-07 7.92119497e-08)
(6.958789642e-07 -4.214670063e-07 6.487579457e-08)
(6.141528878e-07 -4.573437055e-07 8.629913871e-08)
(4.824522342e-07 -4.824521268e-07 1.046076947e-07)
(3.076653041e-07 -4.98996943e-07 1.173222976e-07)
(1.056422683e-07 -5.072980073e-07 1.238919785e-07)
(-1.056417123e-07 -5.072981745e-07 1.238920105e-07)
(-3.0766474e-07 -4.989974261e-07 1.173223957e-07)
(-4.824516479e-07 -4.824528707e-07 1.046078582e-07)
(-6.14152281e-07 -4.573446136e-07 8.629936171e-08)
(-6.958783946e-07 -4.214678831e-07 6.487606769e-08)
(6.549329773e-07 -5.345732406e-07 4.188789632e-08)
(5.806368805e-07 -5.806365535e-07 6.695976388e-08)
(4.573440406e-07 -6.141527186e-07 8.629914805e-08)
(2.919707872e-07 -6.362880211e-07 9.898575575e-08)
(1.002773165e-07 -6.475093702e-07 1.054975467e-07)
(-1.002767501e-07 -6.47509624e-07 1.054975885e-07)
(-2.919702021e-07 -6.362887468e-07 9.898588029e-08)
(-4.573434185e-07 -6.14153821e-07 8.629934998e-08)
(-5.80636161e-07 -5.806378115e-07 6.696001922e-08)
(-6.549322593e-07 -5.345743904e-07 4.188818226e-08)
(5.968376144e-07 -5.968379044e-07 1.108859067e-08)
(5.345739454e-07 -6.549325498e-07 4.188798033e-08)
(4.214676979e-07 -6.958786e-07 6.48758202e-08)
(2.695395946e-07 -7.226648551e-07 7.921165946e-08)
(9.257445572e-08 -7.36232578e-07 8.631950996e-08)
(-9.25738301e-08 -7.362327829e-07 8.631956905e-08)
(-2.695389444e-07 -7.226654726e-07 7.921183603e-08)
(-4.214669523e-07 -6.958796181e-07 6.487610098e-08)
(-5.345730408e-07 -6.549338996e-07 4.188831219e-08)
(-5.96836884e-07 -5.968393616e-07 1.10889304e-08)
(1.283208264e-06 1.283208332e-06 1.814152587e-07)
(1.132597273e-06 1.427648218e-06 4.580029077e-07)
(8.891180376e-07 1.535500044e-06 6.785127383e-07)
(5.673760608e-07 1.607158399e-06 8.28341336e-07)
(1.947776373e-07 1.643463703e-06 9.048173969e-07)
(-1.947807238e-07 1.64346388e-06 9.048174617e-07)
(-5.673790855e-07 1.607158922e-06 8.283415288e-07)
(-8.89120814e-07 1.535500873e-06 6.785130518e-07)
(-1.132599744e-06 1.427649311e-06 4.580033215e-07)
(-1.28320994e-06 1.283209787e-06 1.8141574e-07)
(1.427647807e-06 1.132598156e-06 4.580028572e-07)
(1.250314467e-06 1.250315095e-06 7.29054585e-07)
(9.795348481e-07 1.340868324e-06 9.465627322e-07)
(6.236123009e-07 1.401493303e-06 1.0972753e-06)
(2.139454951e-07 1.432093707e-06 1.174884388e-06)
(-2.139490076e-07 1.432093898e-06 1.174884473e-06)
(-6.236156932e-07 1.40149385e-06 1.09727555e-06)
(-9.795379567e-07 1.340869154e-06 9.465631334e-07)
(-1.250317114e-06 1.250315974e-06 7.290551032e-07)
(-1.427650131e-06 1.1325989e-06 4.580034423e-07)
(1.535499475e-06 8.891193173e-07 6.785125664e-07)
(1.340867674e-06 9.795359488e-07 9.465626027e-07)
(1.046758845e-06 1.046759903e-06 1.166093484e-06)
(6.651084867e-07 1.091652646e-06 1.320809264e-06)
(2.280073441e-07 1.114190603e-06 1.400780088e-06)
(-2.280110838e-07 1.114190703e-06 1.400780196e-06)
(-6.651120954e-07 1.091652928e-06 1.320809581e-06)
(-1.046762162e-06 1.046760304e-06 1.166093984e-06)
(-1.340870568e-06 9.79536339e-07 9.46563241e-07)
(-1.535502076e-06 8.891194814e-07 6.785132791e-07)
(1.607157628e-06 5.673776379e-07 8.283409958e-07)
(1.401492468e-06 6.236137742e-07 1.097274983e-06)
(1.091651521e-06 6.651098795e-07 1.320809066e-06)
(6.927427288e-07 6.927441021e-07 1.479505415e-06)
(2.373472498e-07 7.065872819e-07 1.561616597e-06)
(-2.373511353e-07 7.065872937e-07 1.561616727e-06)
(-6.927464782e-07 6.927441268e-07 1.479505794e-06)
(-1.091654989e-06 6.651098898e-07 1.320809659e-06)
(-1.401495542e-06 6.236136979e-07 1.097275731e-06)
(-1.607160399e-06 5.673773973e-07 8.283418215e-07)
(1.643462719e-06 1.947794475e-07 9.048168559e-07)
(1.432092629e-06 2.139472509e-07 1.174883847e-06)
(1.114189369e-06 2.280089875e-07 1.400779645e-06)
(7.065859093e-07 2.373488106e-07 1.561616341e-06)
(2.420211971e-07 2.420226777e-07 1.644855058e-06)
(-2.420251352e-07 2.420226132e-07 1.644855205e-06)
(-7.065897078e-07 2.373486178e-07 1.561616767e-06)
(-1.114192894e-06 2.280086653e-07 1.400780307e-06)
(-1.432095788e-06 2.139467889e-07 1.174884678e-06)
(-1.643465551e-06 1.947788442e-07 9.048177684e-07)
(1.643462686e-06 -1.947786396e-07 9.048166884e-07)
(1.432092566e-06 -2.139469724e-07 1.174883677e-06)
(1.114189345e-06 -2.280092042e-07 1.400779477e-06)
(7.065859123e-07 -2.373494029e-07 1.561616178e-06)
(2.420212068e-07 -2.420235641e-07 1.644854903e-06)
(-2.420251201e-07 -2.420237076e-07 1.644855059e-06)
(-7.065896839e-07 -2.373498246e-07 1.561616629e-06)
(-1.114192842e-06 -2.280098734e-07 1.40078018e-06)
(-1.432095695e-06 -2.139478461e-07 1.17488456e-06)
(-1.643465463e-06 -1.947796316e-07 9.048176617e-07)
(1.607157515e-06 -5.673766902e-07 8.283404906e-07)
(1.401492273e-06 -6.23613378e-07 1.097274475e-06)
(1.091651459e-06 -6.651099822e-07 1.320808569e-06)
(6.927427434e-07 -6.927445824e-07 1.479504937e-06)
(2.373472814e-07 -7.065880627e-07 1.561616146e-06)
(-2.373510916e-07 -7.06588294e-07 1.561616304e-06)
(-6.927464078e-07 -6.927452557e-07 1.479505397e-06)
(-1.091654845e-06 -6.651110385e-07 1.320809288e-06)
(-1.401495276e-06 -6.236147121e-07 1.097275386e-06)
(-1.607160133e-06 -5.67378147e-07 8.283415049e-07)
(1.535499247e-06 -8.891181339e-07 6.785117282e-07)
(1.340867413e-06 -9.79535364e-07 9.465617715e-07)
(1.046758783e-06 -1.046759792e-06 1.166092684e-06)
(6.651085353e-07 -1.091652901e-06 1.320808511e-06)
(2.280074074e-07 -1.114191168e-06 1.400779388e-06)
(-2.280110117e-07 -1.114191515e-06 1.400779545e-06)
(-6.651119962e-07 -1.091653908e-06 1.320808969e-06)
(-1.046761959e-06 -1.046761355e-06 1.166093407e-06)
(-1.340870193e-06 -9.795373049e-07 9.465626968e-07)
(-1.535501643e-06 -8.891201484e-07 6.785127733e-07)
(1.427647642e-06 -1.132597213e-06 4.580017181e-07)
(1.250314305e-06 -1.250314408e-06 7.290534763e-07)
(9.795349026e-07 -1.340867988e-06 9.465616882e-07)
(6.236124342e-07 -1.40149322e-06 1.097274343e-06)
(2.139456025e-07 -1.432093911e-06 1.174883522e-06)
(-2.139489233e-07 -1.432094397e-06 1.174883679e-06)
(-6.23615609e-07 -1.40149462e-06 1.097274805e-06)
(-9.795377877e-07 -1.340870132e-06 9.465624224e-07)
(-1.25031673e-06 -1.250316966e-06 7.290544238e-07)
(-1.427649674e-06 -1.132599775e-06 4.580027961e-07)
(1.283207549e-06 -1.283207686e-06 1.814139154e-07)
(1.132597828e-06 -1.42764731e-06 4.580016171e-07)
(8.891183892e-07 -1.535499254e-06 6.785115554e-07)
(5.673764298e-07 -1.607157866e-06 8.283402861e-07)
(1.947778349e-07 -1.643463455e-06 9.048164767e-07)
(-1.947806735e-07 -1.643463919e-06 9.048166398e-07)
(-5.673791328e-07 -1.607159232e-06 8.283407656e-07)
(-8.89120776e-07 -1.535501443e-06 6.785123202e-07)
(-1.132599731e-06 -1.427650138e-06 4.580026085e-07)
(-1.283209239e-06 -1.283210802e-06 1.814150526e-07)
(1.452611546e-06 1.452612606e-06 5.615311478e-07)
(1.279176144e-06 1.637076003e-06 1.160572797e-06)
(1.005774536e-06 1.778737776e-06 1.641901967e-06)
(6.427662335e-07 1.874230756e-06 1.97468376e-06)
(2.2085541e-07 1.92284009e-06 2.145627057e-06)
(-2.208617962e-07 1.922840264e-06 2.14562709e-06)
(-6.427724637e-07 1.874231272e-06 1.974683852e-06)
(-1.005780342e-06 1.778738578e-06 1.641902105e-06)
(-1.27918139e-06 1.637077033e-06 1.160572948e-06)
(-1.452615695e-06 1.452613992e-06 5.615312843e-07)
(1.637074624e-06 1.279178201e-06 1.1605728e-06)
(1.431469164e-06 1.431471001e-06 1.764858429e-06)
(1.122554851e-06 1.552312675e-06 2.25835324e-06)
(7.154150244e-07 1.634362311e-06 2.604449236e-06)
(2.455818195e-07 1.675967442e-06 2.783217823e-06)
(-2.455889527e-07 1.675967619e-06 2.783217867e-06)
(-7.15421938e-07 1.634362811e-06 2.604449361e-06)
(-1.122561292e-06 1.552313417e-06 2.258353422e-06)
(-1.43147488e-06 1.431471741e-06 1.764858628e-06)
(-1.637079679e-06 1.279178757e-06 1.160572969e-06)
(1.778736271e-06 1.005777173e-06 1.641901863e-06)
(1.552310833e-06 1.122557359e-06 2.258353121e-06)
(1.21243608e-06 1.212438554e-06 2.766264173e-06)
(7.707953336e-07 1.2733119e-06 3.125808772e-06)
(2.643175269e-07 1.304066456e-06 3.311952157e-06)
(-2.643251191e-07 1.304066531e-06 3.311952216e-06)
(-7.708026879e-07 1.273312105e-06 3.125808939e-06)
(-1.212442939e-06 1.212438824e-06 2.766264416e-06)
(-1.552316981e-06 1.122557566e-06 2.258353389e-06)
(-1.778741759e-06 1.005777112e-06 1.641902098e-06)
(1.874229094e-06 6.427693508e-07 1.974683447e-06)
(1.634360322e-06 7.154180995e-07 2.604448889e-06)
(1.273309381e-06 7.707983502e-07 3.125808535e-06)
(8.082324316e-07 8.082354189e-07 3.495980975e-06)
(2.769611524e-07 8.271319501e-07 3.687688009e-06)
(-2.769690357e-07 8.27131928e-07 3.687688085e-06)
(-8.082400643e-07 8.082353426e-07 3.49598119e-06)
(-1.273316514e-06 7.707981944e-07 3.12580885e-06)
(-1.634366752e-06 7.154177976e-07 2.604449241e-06)
(-1.874234832e-06 6.427688362e-07 1.974683764e-06)
(1.92283826e-06 2.208589267e-07 2.14562646e-06)
(1.675965262e-06 2.455853524e-07 2.783217168e-06)
(1.30406387e-06 2.643209779e-07 3.311951597e-06)
(8.27128997e-07 2.769645177e-07 3.687687679e-06)
(2.833404875e-07 2.83343743e-07 3.882256032e-06)
(-2.833484892e-07 2.833436367e-07 3.882256126e-06)
(-8.271367385e-07 2.769642001e-07 3.687687946e-06)
(-1.304071107e-06 2.643204541e-07 3.311951988e-06)
(-1.675971808e-06 2.455846213e-07 2.783217612e-06)
(-1.922844079e-06 2.208580014e-07 2.145626873e-06)
(1.922838278e-06 -2.208578748e-07 2.145626148e-06)
(1.675965243e-06 -2.455850026e-07 2.783216848e-06)
(1.304063876e-06 -2.643212869e-07 3.31195128e-06)
(8.271290175e-07 -2.769653534e-07 3.687687372e-06)
(2.833405049e-07 -2.83344997e-07 3.882255739e-06)
(-2.833484743e-07 -2.83345192e-07 3.882255852e-06)
(-8.271367207e-07 -2.769659248e-07 3.68768769e-06)
(-1.304071067e-06 -2.643221977e-07 3.311951751e-06)
(-1.67597173e-06 -2.45586192e-07 2.783217393e-06)
(-1.922844006e-06 -2.208592405e-07 2.145626673e-06)
(1.874229127e-06 -6.427681464e-07 1.974682532e-06)
(1.634360261e-06 -7.154176135e-07 2.604447955e-06)
(1.273309409e-06 -7.707985288e-07 3.125807613e-06)
(8.082324962e-07 -8.082361271e-07 3.495980085e-06)
(2.769612057e-07 -8.271330859e-07 3.687687166e-06)
(-2.769689928e-07 -8.271333786e-07 3.687687295e-06)
(-8.082400119e-07 -8.082369804e-07 3.495980455e-06)
(-1.273316403e-06 -7.707998705e-07 3.125808167e-06)
(-1.634366531e-06 -7.154193188e-07 2.604448609e-06)
(-1.874234608e-06 -6.427700343e-07 1.974683183e-06)
(1.778736279e-06 -1.005775708e-06 1.641900408e-06)
(1.552310776e-06 -1.122556651e-06 2.25835165e-06)
(1.212436152e-06 -1.21243849e-06 2.766262735e-06)
(7.707954566e-07 -1.273312358e-06 3.125807397e-06)
(2.64317621e-07 -1.304067354e-06 3.311950864e-06)
(-2.643250491e-07 -1.304067773e-06 3.311951011e-06)
(-7.708026164e-07 -1.273313577e-06 3.125807819e-06)
(-1.212442787e-06 -1.212440386e-06 2.766263376e-06)
(-1.552316677e-06 -1.122559022e-06 2.258352421e-06)
(-1.778741399e-06 -1.005778218e-06 1.6419012e-06)
(1.637074751e-06 -1.279176902e-06 1.160570923e-06)
(1.431469248e-06 -1.431470144e-06 1.764856562e-06)
(1.12255506e-06 -1.552312346e-06 2.258351441e-06)
(7.154152424e-07 -1.634362403e-06 2.604447539e-06)
(2.455819616e-07 -1.675967957e-06 2.783216249e-06)
(-2.455888706e-07 -1.675968528e-06 2.783216414e-06)
(-7.154218852e-07 -1.634364051e-06 2.604448015e-06)
(-1.122561182e-06 -1.552314879e-06 2.25835217e-06)
(-1.431474585e-06 -1.431473192e-06 1.764857456e-06)
(-1.637079316e-06 -1.27918003e-06 1.160571863e-06)
(1.452611207e-06 -1.452611573e-06 5.615290522e-07)
(1.279176904e-06 -1.637074905e-06 1.160570736e-06)
(1.005775028e-06 -1.778736981e-06 1.641900026e-06)
(6.427666727e-07 -1.874230379e-06 1.974681967e-06)
(2.208556386e-07 -1.922840131e-06 2.145625426e-06)
(-2.208617448e-07 -1.922840698e-06 2.145625607e-06)
(-6.427725335e-07 -1.874232042e-06 1.974682491e-06)
(-1.005780356e-06 -1.778739629e-06 1.641900839e-06)
(-1.279181444e-06 -1.637078313e-06 1.160571745e-06)
(-1.452615146e-06 -1.452615364e-06 5.615301378e-07)
(1.29430218e-06 1.294303553e-06 8.690765588e-07)
(1.143189064e-06 1.474026205e-06 1.784962501e-06)
(9.027714539e-07 1.614538689e-06 2.526366621e-06)
(5.786422908e-07 1.710358359e-06 3.044100417e-06)
(1.991286275e-07 1.759379987e-06 3.311174137e-06)
(-1.991367957e-07 1.75938016e-06 3.311174081e-06)
(-5.786502529e-07 1.710358867e-06 3.044100244e-06)
(-9.027788994e-07 1.614539479e-06 2.526366317e-06)
(-1.143195814e-06 1.474027207e-06 1.784962046e-06)
(-1.29430767e-06 1.294304908e-06 8.690759441e-07)
(1.474024588e-06 1.143191482e-06 1.784962547e-06)
(1.293137136e-06 1.293139306e-06 2.725025803e-06)
(1.017696544e-06 1.414417986e-06 3.500666967e-06)
(6.502453455e-07 1.497739972e-06 4.048643413e-06)
(2.23500952e-07 1.540216601e-06 4.332492225e-06)
(-2.235099831e-07 1.540216774e-06 4.33249217e-06)
(-6.50254106e-07 1.497740461e-06 4.048643241e-06)
(-1.017704737e-06 1.414418702e-06 3.500666659e-06)
(-1.293144468e-06 1.293140005e-06 2.72502533e-06)
(-1.474031092e-06 1.143191973e-06 1.784961883e-06)
(1.614537015e-06 9.027745276e-07 2.526366582e-06)
(1.414415857e-06 1.017699468e-06 3.500666869e-06)
(1.108328773e-06 1.108331623e-06 4.308060141e-06)
(7.061829298e-07 1.170500497e-06 4.881966546e-06)
(2.424315366e-07 1.202114118e-06 5.179708365e-06)
(-2.42441097e-07 1.202114188e-06 5.179708316e-06)
(-7.061921999e-07 1.170500685e-06 4.881966391e-06)
(-1.108337449e-06 1.108331863e-06 4.308059855e-06)
(-1.414423684e-06 1.017699626e-06 3.500666412e-06)
(-1.614544001e-06 9.027743971e-07 2.526365919e-06)
(1.710356596e-06 5.786459269e-07 3.044100171e-06)
(1.497737764e-06 6.502489221e-07 4.048643084e-06)
(1.17049765e-06 7.061864192e-07 4.881966306e-06)
(7.445138001e-07 7.445172212e-07 5.475021639e-06)
(2.553894212e-07 7.640058366e-07 5.782677214e-06)
(-2.553993012e-07 7.640058071e-07 5.782677178e-06)
(-7.445233753e-07 7.445171222e-07 5.475021519e-06)
(-1.170506623e-06 7.061862226e-07 4.881966069e-06)
(-1.497745891e-06 6.502485608e-07 4.048642681e-06)
(-1.710363845e-06 5.786453308e-07 3.04409955e-06)
(1.75937813e-06 1.991327409e-07 3.311173584e-06)
(1.540214269e-06 2.235050673e-07 4.332491564e-06)
(1.202111259e-06 2.424355486e-07 5.179707783e-06)
(7.640024909e-07 2.553933169e-07 5.782676868e-06)
(2.619773321e-07 2.619810853e-07 6.095384163e-06)
(-2.619873233e-07 2.619809685e-07 6.095384145e-06)
(-7.640121663e-07 2.55392969e-07 5.7826768e-06)
(-1.202120322e-06 2.424349724e-07 5.179707623e-06)
(-1.540222493e-06 2.235042628e-07 4.332491253e-06)
(-1.759385438e-06 1.991317191e-07 3.311173055e-06)
(1.759378214e-06 -1.991322268e-07 3.311173152e-06)
(1.540214314e-06 -2.235053907e-07 4.332491116e-06)
(1.202111312e-06 -2.424366393e-07 5.179707336e-06)
(7.64002546e-07 -2.553950132e-07 5.782676433e-06)
(2.61977373e-07 -2.619832518e-07 6.095383747e-06)
(-2.619872945e-07 -2.619834591e-07 6.095383752e-06)
(-7.640121431e-07 -2.55395624e-07 5.782676432e-06)
(-1.202120286e-06 -2.424376123e-07 5.179707281e-06)
(-1.540222428e-06 -2.235066683e-07 4.332490936e-06)
(-1.759385379e-06 -1.991337009e-07 3.311172766e-06)
(1.710356825e-06 -5.786452676e-07 3.044098909e-06)
(1.497737884e-06 -6.502491139e-07 4.048641782e-06)
(1.170497815e-06 -7.061873779e-07 4.881965012e-06)
(7.445139648e-07 -7.445187887e-07 5.475020382e-06)
(2.553895426e-07 -7.640078814e-07 5.782676016e-06)
(-2.553992175e-07 -7.640081894e-07 5.782676049e-06)
(-7.445233075e-07 -7.445196868e-07 5.475020462e-06)
(-1.170506522e-06 -7.061887921e-07 4.881965085e-06)
(-1.497745706e-06 -6.502509148e-07 4.048641767e-06)
(-1.710363668e-06 -5.786472734e-07 3.044098713e-06)
(1.614537329e-06 -9.027736139e-07 2.526364599e-06)
(1.414416082e-06 -1.017699438e-06 3.500664843e-06)
(1.108329058e-06 -1.108332335e-06 4.308058142e-06)
(7.061832071e-07 -1.170501808e-06 4.881964616e-06)
(2.424317374e-07 -1.202115918e-06 5.179706534e-06)
(-2.424409635e-07 -1.202116354e-06 5.179706596e-06)
(-7.061921027e-07 -1.170503074e-06 4.881964784e-06)
(-1.10833731e-06 -1.108334307e-06 4.308058356e-06)
(-1.414423435e-06 -1.017701904e-06 3.500665016e-06)
(-1.614543714e-06 -9.027762435e-07 2.526364627e-06)
(1.474025096e-06 -1.143190698e-06 1.784960022e-06)
(1.293137555e-06 -1.293139105e-06 2.725023267e-06)
(1.017697014e-06 -1.41441842e-06 3.500664495e-06)
(6.502457533e-07 -1.497740907e-06 4.048641052e-06)
(2.235012281e-07 -1.540218009e-06 4.332490004e-06)
(-2.23509819e-07 -1.540218596e-06 4.332490097e-06)
(-6.502540158e-07 -1.497742601e-06 4.048641308e-06)
(-1.017704635e-06 -1.414421021e-06 3.500664854e-06)
(-1.293144229e-06 -1.293142247e-06 2.725023636e-06)
(-1.474030816e-06 -1.143193944e-06 1.784960289e-06)
(1.294302306e-06 -1.294303003e-06 8.690737858e-07)
(1.143190135e-06 -1.474025755e-06 1.784959744e-06)
(9.02772209e-07 -1.614538653e-06 2.526363992e-06)
(5.786429262e-07 -1.710358815e-06 3.044097948e-06)
(1.99128999e-07 -1.75938091e-06 3.311171847e-06)
(-1.991366474e-07 -1.759381494e-06 3.311171964e-06)
(-5.786502664e-07 -1.71036053e-06 3.044098279e-06)
(-9.027789037e-07 -1.61454138e-06 2.526364477e-06)
(-1.143195891e-06 -1.474029256e-06 1.784960291e-06)
(-1.294307261e-06 -1.294306912e-06 8.690742731e-07)
(1.002520413e-06 1.002521681e-06 1.11077373e-06)
(8.889221706e-07 1.151953446e-06 2.288682029e-06)
(7.051714876e-07 1.270496936e-06 3.24833929e-06)
(4.533595648e-07 1.352159249e-06 3.923110494e-06)
(1.562588469e-07 1.394139376e-06 4.272305493e-06)
(-1.562673727e-07 1.39413955e-06 4.272305317e-06)
(-4.533678746e-07 1.352159763e-06 3.923109964e-06)
(-7.05179265e-07 1.270497731e-06 3.248338404e-06)
(-8.889292149e-07 1.151954455e-06 2.288680783e-06)
(-1.002526185e-06 1.002523031e-06 1.110772145e-06)
(1.151952069e-06 8.88924415e-07 2.288682108e-06)
(1.014884419e-06 1.014886347e-06 3.513303896e-06)
(8.018771511e-07 1.118202064e-06 4.531033035e-06)
(5.137600172e-07 1.189901309e-06 5.253855718e-06)
(1.768338745e-07 1.226641191e-06 5.629184329e-06)
(-1.768432226e-07 1.226641368e-06 5.629184144e-06)
(-5.13769086e-07 1.189901807e-06 5.253855158e-06)
(-8.018856376e-07 1.118202794e-06 4.531032092e-06)
(-1.014892024e-06 1.014887058e-06 3.513302562e-06)
(-1.151958806e-06 8.889249045e-07 2.288680387e-06)
(1.270495592e-06 7.051743676e-07 3.248339315e-06)
(1.118200264e-06 8.018798061e-07 4.531032964e-06)
(8.795103337e-07 8.795128405e-07 5.599282153e-06)
(5.61815926e-07 9.333317654e-07 6.361339319e-06)
(1.931158175e-07 9.608585408e-07 6.757472451e-06)
(-1.93125644e-07 9.608586162e-07 6.757472264e-06)
(-5.618254541e-07 9.333319692e-07 6.361338752e-06)
(-8.795192538e-07 8.795131024e-07 5.599281192e-06)
(-1.118208315e-06 8.018799897e-07 4.531031593e-06)
(-1.270502771e-06 7.051742599e-07 3.248337528e-06)
(1.352157912e-06 4.533629966e-07 3.923110334e-06)
(1.189899515e-06 5.137633125e-07 5.253855441e-06)
(9.333293367e-07 5.61819063e-07 6.361339104e-06)
(5.951119712e-07 5.951149777e-07 7.151619281e-06)
(2.0438885e-07 6.121488124e-07 7.56229882e-06)
(-2.043989385e-07 6.121487905e-07 7.56229864e-06)
(-5.951217473e-07 5.951148997e-07 7.151618734e-06)
(-9.333384972e-07 5.618188978e-07 6.361338169e-06)
(-1.189907811e-06 5.137629857e-07 5.253854091e-06)
(-1.3521653e-06 4.533624295e-07 3.92310855e-06)
(1.394138027e-06 1.562627488e-07 4.272305049e-06)
(1.226639355e-06 1.768376998e-07 5.629183744e-06)
(9.608561621e-07 1.931194732e-07 6.757471921e-06)
(6.121459322e-07 2.043923361e-07 7.562298503e-06)
(2.101568071e-07 2.101601111e-07 7.980370104e-06)
(-2.101669471e-07 2.10160004e-07 7.980369942e-06)
(-6.121557488e-07 2.043920143e-07 7.562298005e-06)
(-9.608653536e-07 1.931189362e-07 6.757471059e-06)
(-1.226647688e-06 1.768369392e-07 5.62918248e-06)
(-1.394145417e-06 1.562617657e-07 4.272303346e-06)
(1.394138182e-06 -1.562630291e-07 4.272304522e-06)
(1.226639467e-06 -1.768389375e-07 5.629183195e-06)
(9.608562715e-07 -1.931215495e-07 6.757471371e-06)
(6.121460304e-07 -2.043950604e-07 7.562297965e-06)
(2.101568814e-07 -2.10163312e-07 7.980369588e-06)
(-2.101668944e-07 -2.101635087e-07 7.980369452e-06)
(-6.12155711e-07 -2.043956374e-07 7.562297545e-06)
(-9.608653133e-07 -1.931224756e-07 6.75747063e-06)
(-1.22664763e-06 -1.768401573e-07 5.629182082e-06)
(-1.394145373e-06 -1.562644532e-07 4.272302983e-06)
(1.352158345e-06 -4.533631433e-07 3.9231088e-06)
(1.189899835e-06 -5.137644229e-07 5.253853849e-06)
(9.333296621e-07 -5.618210134e-07 6.361337513e-06)
(5.951122605e-07 -5.951175752e-07 7.151617729e-06)
(2.043890687e-07 -6.121518939e-07 7.562297331e-06)
(-2.043987849e-07 -6.121521877e-07 7.56229723e-06)
(-5.951216363e-07 -5.951184327e-07 7.151617409e-06)
(-9.333383842e-07 -5.618223662e-07 6.361336932e-06)
(-1.189907651e-06 -5.137661523e-07 5.253852943e-06)
(-1.352165163e-06 -4.533650792e-07 3.923107499e-06)
(1.270496234e-06 -7.051742756e-07 3.248336911e-06)
(1.118200793e-06 -8.018807007e-07 4.531030494e-06)
(8.795108643e-07 -8.795145506e-07 5.599279699e-06)
(5.618163965e-07 -9.333341096e-07 6.361336934e-06)
(1.931161687e-07 -9.608613796e-07 6.757470174e-06)
(-1.931254e-07 -9.608617967e-07 6.757470112e-06)
(-5.618252865e-07 -9.333353245e-07 6.36133673e-06)
(-8.795190919e-07 -8.795164397e-07 5.599279304e-06)
(-1.118208096e-06 -8.018830724e-07 4.531029833e-06)
(-1.270502549e-06 -7.051768088e-07 3.248335903e-06)
(1.151952975e-06 -8.889244219e-07 2.28867906e-06)
(1.014885203e-06 -1.014887063e-06 3.513300812e-06)
(8.018779176e-07 -1.118203488e-06 4.531030005e-06)
(5.137606633e-07 -1.18990328e-06 5.253852798e-06)
(1.768343392e-07 -1.226643641e-06 5.629181558e-06)
(-1.768429155e-07 -1.226644204e-06 5.629181535e-06)
(-5.13768899e-07 -1.189904905e-06 5.253852712e-06)
(-8.01885492e-07 -1.118205988e-06 4.531029801e-06)
(-1.014891808e-06 -1.014890078e-06 3.513300413e-06)
(-1.151958599e-06 -8.889275422e-07 2.288678374e-06)
(1.002521027e-06 -1.002521883e-06 1.110770395e-06)
(8.889235787e-07 -1.151953904e-06 2.288678687e-06)
(7.051725444e-07 -1.270497894e-06 3.248336068e-06)
(4.53360442e-07 -1.352160741e-06 3.923107431e-06)
(1.562594226e-07 -1.394141341e-06 4.272302616e-06)
(-1.562670592e-07 -1.394141902e-06 4.272302627e-06)
(-4.533677612e-07 -1.352162388e-06 3.923107446e-06)
(-7.051791952e-07 -1.270500512e-06 3.248336036e-06)
(-8.889292676e-07 -1.15195727e-06 2.288678528e-06)
(-1.00252589e-06 -1.00252564e-06 1.110770007e-06)
(7.024141948e-07 7.024151329e-07 1.261054978e-06)
(6.255604383e-07 8.13173773e-07 2.632067555e-06)
(4.984975791e-07 9.020441436e-07 3.755087811e-06)
(3.214465671e-07 9.637983359e-07 4.548689245e-06)
(1.109614118e-07 9.956832594e-07 4.960399864e-06)
(-1.109693281e-07 9.956834383e-07 4.960399569e-06)
(-3.214542861e-07 9.637988584e-07 4.548688366e-06)
(-4.985048059e-07 9.020449601e-07 3.755086355e-06)
(-6.255669805e-07 8.131748016e-07 2.63206554e-06)
(-7.024195273e-07 7.024164913e-07 1.261052456e-06)
(8.131728729e-07 6.255622307e-07 2.632067649e-06)
(7.197829315e-07 7.197843028e-07 4.070960502e-06)
(5.710207748e-07 7.979087602e-07 5.273107325e-06)
(3.668666593e-07 8.525859835e-07 6.130301637e-06)
(1.264499253e-07 8.807325619e-07 6.576298618e-06)
(-1.264585218e-07 8.807327441e-07 6.576298306e-06)
(-3.668749976e-07 8.525865011e-07 6.130300701e-06)
(-5.71028574e-07 7.979095189e-07 5.27310577e-06)
(-7.19789906e-07 7.197850556e-07 4.070958341e-06)
(-8.131790454e-07 6.255627544e-07 2.632064917e-06)
(9.020433936e-07 4.984999192e-07 3.755087871e-06)
(7.97907615e-07 5.71022783e-07 5.273107276e-06)
(6.300565397e-07 6.300582999e-07 6.542562966e-06)
(4.035324908e-07 6.713475342e-07 7.450877263e-06)
(1.388907594e-07 6.925715245e-07 7.923847154e-06)
(-1.388997034e-07 6.92571611e-07 7.923846834e-06)
(-4.035411597e-07 6.713477686e-07 7.450876301e-06)
(-6.300646466e-07 6.30058611e-07 6.542561361e-06)
(-7.979149192e-07 5.710230272e-07 5.273105034e-06)
(-9.020498937e-07 4.984998737e-07 3.755085019e-06)
(9.637976906e-07 3.214493843e-07 4.548689152e-06)
(8.525849467e-07 3.668692267e-07 6.130301411e-06)
(6.713459384e-07 4.035348052e-07 7.450877079e-06)
(4.291704926e-07 4.291725976e-07 8.395588762e-06)
(1.475858063e-07 4.42357215e-07 8.887291496e-06)
(-1.475948979e-07 4.423572079e-07 8.887291179e-06)
(-4.29179296e-07 4.291725632e-07 8.395587809e-06)
(-6.713541755e-07 4.035347063e-07 7.450875482e-06)
(-8.525923892e-07 3.668689834e-07 6.130299166e-06)
(-9.638043021e-07 3.214489029e-07 4.54868627e-06)
(9.956826924e-07 1.109646386e-07 4.960399524e-06)
(8.807315654e-07 1.264529557e-07 6.576298125e-06)
(6.925700499e-07 1.388935282e-07 7.923846697e-06)
(4.423552921e-07 1.475883348e-07 8.887291223e-06)
(1.520584621e-07 1.520607641e-07 9.388513251e-06)
(-1.520675107e-07 1.52060676e-07 9.388512951e-06)
(-4.423640434e-07 1.475880695e-07 8.887290316e-06)
(-6.925782258e-07 1.388930764e-07 7.923845169e-06)
(-8.807389553e-07 1.264523004e-07 6.57629596e-06)
(-9.956892255e-07 1.109637639e-07 4.960396715e-06)
(9.956829176e-07 -1.109657205e-07 4.960398929e-06)
(8.807317495e-07 -1.264550901e-07 6.576297503e-06)
(6.92570217e-07 -1.388965549e-07 7.923846071e-06)
(4.42355438e-07 -1.475920231e-07 8.887290608e-06)
(1.52058575e-07 -1.520649131e-07 9.388512658e-06)
(-1.520674279e-07 -1.520650844e-07 9.388512387e-06)
(-4.423639842e-07 -1.475925314e-07 8.887289786e-06)
(-6.925781758e-07 -1.388973719e-07 7.923844675e-06)
(-8.807389024e-07 -1.26456181e-07 6.576295503e-06)
(-9.956891896e-07 -1.109670066e-07 4.9603963e-06)
(9.63798336e-07 -3.214503459e-07 4.548687416e-06)
(8.52585469e-07 -3.668712466e-07 6.130299605e-06)
(6.713464318e-07 -4.035377119e-07 7.450875266e-06)
(4.291709199e-07 -4.291761668e-07 8.395586985e-06)
(1.475861368e-07 -4.423612495e-07 8.887289784e-06)
(-1.475946558e-07 -4.423615134e-07 8.887289553e-06)
(-4.291791233e-07 -4.291769382e-07 8.39558628e-06)
(-6.71354032e-07 -4.035389329e-07 7.450874055e-06)
(-8.525922341e-07 -3.668728132e-07 6.130297846e-06)
(-9.638041946e-07 -3.214521111e-07 4.548685067e-06)
(9.020443648e-07 -4.985006575e-07 3.75508515e-06)
(7.97908458e-07 -5.710246003e-07 5.273104467e-06)
(6.300573285e-07 -6.300609749e-07 6.542560162e-06)
(4.035331725e-07 -6.713508614e-07 7.450874523e-06)