/*--------------------------------*- C++ -*----------------------------------*\
| =========                 |                                                 |
| \\      /  F ield         | OpenFOAM: The Open Source CFD Toolbox           |
|  \\    /   O peration     | Version:  v2012                                 |
|   \\  /    A nd           | Website:  www.openfoam.com                      |
|    \\/     M anipulation  |                                                 |
\*---------------------------------------------------------------------------*/
FoamFile
{
    version     2.0;
    format      ascii;
    class       volVectorField;
    location    "0";
    object      Ulift;
}
// * * * * * * * * * * * * * * * * * * * * * * * * * * * * * * * * * * * * * //

dimensions      [0 1 -1 0 0 0 0];


internalField   nonuniform List<vector> 
1080
(
(0 0 0.9999999925)
(0 0 0.9999999925)
(0 0 0.9999999925)
(0 -1.500000224e-08 0.9999999925)
(0 -1.500000224e-08 1.000000008)
(0 0 1.000000008)
(0 0 0.9999999925)
(0 0 0.9999999925)
(0 -1.500000432e-08 0.9999999925)
(0 -1.500000432e-08 1.000000008)
(0 0 1.000000007)
(0 0 1.000000008)
(0 0 0.999999985)
(0 0 0.999999985)
(0 0 0.999999985)
(0 0 0.999999985)
(0 0 1)
(0 -1.500000179e-08 1)
(0 -1.500000179e-08 1)
(0 0 1)
(0 0 0.999999985)
(0 0 1)
(0 0 1)
(0 0 1)
(0 0 0.9999999925)
(0 0 0.9999999925)
(0 0 0.9999999925)
(0 0 0.9999999925)
(0 0 0.9999999925)
(0 0 0.9999999925)
(0 0 0.9999999925)
(0 -1.499999807e-08 0.9999999925)
(0 -1.499999807e-08 0.9999999925)
(0 0 0.9999999925)
(0 0 0.9999999925)
(0 0 0.9999999925)
(0 0 0.9999999925)
(0 0 0.9999999925)
(0 0 0.9999999925)
(0 0 0.9999999925)
(0 0 0.9999999925)
(0 -1.500000224e-08 0.9999999925)
(0 -1.500000224e-08 0.9999999925)
(0 0 0.9999999775)
(0 0 0.9999999925)
(0 0 0.9999999925)
(0 0 0.9999999925)
(0 0 0.9999999925)
(0 0 0.999999985)
(0 0 0.999999985)
(0 0 0.999999985)
(0 0 0.999999985)
(0 0 0.999999985)
(0 0 0.999999985)
(0 -1.500000179e-08 1)
(0 -1.500000179e-08 0.999999985)
(0 0 0.999999985)
(0 0 0.999999985)
(0 0 0.999999985)
(0 0 0.999999985)
(0 0 0.9999999775)
(0 0 0.9999999775)
(0 0 0.9999999775)
(0 0 0.9999999775)
(0 0 0.9999999775)
(0 0 0.9999999775)
(0 -1.500000224e-08 0.9999999775)
(0 -1.500000224e-08 0.9999999925)
(0 0 0.9999999775)
(0 0 0.9999999775)
(0 0 0.9999999775)
(0 0 0.9999999775)
(0 0 0.9999999775)
(0 0 0.9999999775)
(0 0 0.9999999775)
(0 0 0.9999999775)
(0 0 0.9999999775)
(0 0 0.9999999775)
(0 0 0.9999999775)
(0 -1.500000224e-08 0.9999999775)
(0 -1.500000224e-08 0.9999999775)
(0 0 0.9999999775)
(0 0 0.9999999775)
(0 0 0.9999999775)
(0 0 0.999999985)
(0 0 0.999999985)
(0 0 0.999999985)
(0 0 0.999999985)
(0 0 0.99999997)
(0 0 0.99999997)
(0 -1.500000595e-08 0.99999997)
(0 -1.500000595e-08 0.99999997)
(0 0 0.999999985)
(0 0 0.999999985)
(0 0 0.999999985)
(0 0 0.999999985)
(0 0 0.9999999775)
(0 0 0.9999999775)
(0 0 0.9999999775)
(0 -1.499999652e-08 0.9999999775)
(0 -1.499999652e-08 0.9999999775)
(0 0 0.9999999625)
(0 0 0.9999999625)
(0 0 0.9999999775)
(0 0 0.9999999775)
(0 0 0.9999999775)
(0 0 0.9999999775)
(0 0 0.9999999775)
(0 0 0.9999999625)
(0 0 0.9999999625)
(0 0 0.9999999625)
(0 0 0.9999999625)
(0 -1.500000224e-08 0.9999999775)
(0 -1.500000224e-08 0.9999999775)
(0 0 0.9999999775)
(0 0 0.9999999625)
(0 0 0.9999999625)
(0 0 0.9999999625)
(0 0 0.9999999625)
(0 0 0.9999999625)
(0 0 0.99999997)
(0 0 0.99999997)
(0 0 0.999999955)
(0 0 0.999999955)
(0 0 0.999999955)
(0 0 0.99999997)
(0 -1.499999971e-08 0.99999997)
(0 -1.499999971e-08 0.99999997)
(0 0 0.99999997)
(0 0 0.99999997)
(0 0 0.99999997)
(0 0 0.99999997)
(0 0 0.9999999625)
(0 -1.500000224e-08 0.9999999625)
(0 -1.500000224e-08 0.9999999625)
(0 0 0.9999999625)
(0 0 0.9999999625)
(0 0 0.9999999625)
(0 0 0.9999999625)
(0 0 0.9999999775)
(0 0 0.9999999775)
(0 0 0.9999999775)
(0 0 0.9999999625)
(0 0 0.9999999625)
(0 0 0.9999999475)
(0 0 0.9999999475)
(0 0 0.9999999625)
(0 0 0.9999999625)
(0 0 0.9999999625)
(0 0 0.9999999625)
(0 0 0.9999999625)
(0 0 0.9999999625)
(0 0 0.9999999625)
(0 -1.500000224e-08 0.9999999625)
(0 -1.500000224e-08 0.9999999625)
(0 0 0.9999999625)
(0 0 0.999999955)
(0 0 0.999999955)
(0 0 0.999999955)
(0 0 0.999999955)
(0 0 0.999999955)
(0 0 0.999999955)
(0 0 0.999999955)
(0 0 0.999999955)
(0 0 0.999999955)
(0 0 0.999999955)
(0 0 0.99999997)
(0 0 0.99999997)
(0 0 0.9999999452)
(0 0 0.9999999452)
(0 0 0.9999999452)
(0 0 0.9999999453)
(0 0 0.9999999453)
(0 0 0.9999999452)
(0 0 0.9999999452)
(0 0 0.9999999453)
(0 0 0.9999999452)
(0 0 0.9999999452)
(0 0 0.9999999453)
(0 0 0.9999999452)
(0 0 0.9999999475)
(0 0 0.9999999475)
(0 0 0.9999999475)
(0 0 0.9999999475)
(0 0 0.9999999475)
(0 0 0.9999999475)
(0 0 0.9999999475)
(0 0 0.9999999475)
(0 0 0.9999999475)
(0 0 0.9999999475)
(0 0 0.9999999475)
(0 0 0.9999999475)
(0 0 0.9999999595)
(0 0 0.9999999595)
(0 0 0.9999999595)
(0 0 0.9999999595)
(0 0 0.9999999595)
(0 0 0.9999999595)
(0 0 0.9999999595)
(0 0 0.9999999595)
(0 0 0.9999999595)
(0 0 0.9999999595)
(0 0 0.9999999595)
(0 0 0.9999999595)
(0 0 0.9999999603)
(0 0 0.9999999603)
(0 0 0.9999999452)
(0 0 0.9999999452)
(0 0 0.9999999453)
(0 0 0.9999999453)
(0 0 0.9999999453)
(0 0 0.9999999453)
(0 0 0.9999999453)
(0 0 0.9999999452)
(0 0 0.9999999452)
(0 0 0.9999999453)
(0 0 0.9999999453)
(0 -1.50000021e-08 0.9999999452)
(0 -1.50000021e-08 0.9999999452)
(0 0 0.9999999452)
(0 0 0.9999999452)
(0 0 0.9999999453)
(0 0 0.9999999453)
(0 0 0.9999999452)
(0 0 0.9999999453)
(0 0 0.9999999302)
(0 0 0.9999999303)
(0 0 0.9999999302)
(0 0 0.9999999445)
(0 0 0.9999999445)
(0 0 0.9999999445)
(0 0 0.9999999445)
(0 0 0.9999999445)
(0 0 0.9999999445)
(0 0 0.9999999445)
(0 0 0.9999999445)
(0 -1.499999634e-08 0.9999999445)
(0 -1.499999634e-08 0.9999999445)
(0 0 0.9999999445)
(0 0 0.9999999295)
(0 0 0.9999999453)
(0 -1.50000021e-08 0.9999999452)
(0 -1.50000021e-08 0.9999999453)
(0 0 0.9999999452)
(0 0 0.9999999453)
(0 0 0.9999999452)
(0 0 0.9999999302)
(0 0 0.9999999303)
(0 0 0.9999999303)
(0 0 0.9999999453)
(0 -1.49999982e-08 0.9999999452)
(0 -1.49999982e-08 0.9999999452)
(0 0 0.9999999302)
(0 0 0.9999999302)
(0 0 0.9999999452)
(0 0 0.9999999453)
(0 0 0.9999999453)
(0 -1.50000021e-08 0.9999999453)
(0 -1.50000021e-08 0.9999999302)
(0 0 0.9999999302)
(0 0 0.9999999303)
(0 0 0.9999999303)
(0 0 0.9999999303)
(0 0 0.9999999453)
(0 0 0.9999999295)
(0 0 0.9999999295)
(0 0 0.9999999295)
(0 0 0.9999999295)
(0 0 0.9999999295)
(0 -1.500000206e-08 0.9999999295)
(0 -1.500000206e-08 0.9999999295)
(0 0 0.9999999295)
(0 0 0.9999999295)
(0 0 0.9999999295)
(0 0 0.9999999295)
(0 0 0.9999999295)
(0 0 0.9999999302)
(0 0 0.9999999302)
(0 0 0.9999999303)
(0 0 0.9999999302)
(0 0 0.9999999303)
(0 -1.50000021e-08 0.9999999302)
(0 -1.50000021e-08 0.9999999303)
(0 0 0.9999999303)
(0 0 0.9999999302)
(0 0 0.9999999302)
(0 0 0.9999999303)
(0 0 0.9999999303)
(0 0 0.9999999302)
(0 0 0.9999999302)
(0 0 0.9999999302)
(0 0 0.9999999302)
(0 0 0.9999999302)
(0 -1.50000021e-08 0.9999999153)
(0 -1.50000021e-08 0.9999999303)
(0 0 0.9999999303)
(0 0 0.9999999303)
(0 0 0.9999999303)
(0 0 0.9999999303)
(0 0 0.9999999303)
(0 0 0.9999999145)
(0 0 0.9999999145)
(0 0 0.9999999145)
(0 0 0.9999999145)
(0 -1.499999816e-08 0.9999999145)
(0 -1.499999816e-08 0.9999999145)
(0 0 0.9999999295)
(0 0 0.9999999295)
(0 0 0.9999999295)
(0 0 0.9999999295)
(0 0 0.9999999295)
(0 0 0.9999999145)
(0 0 0.9999999153)
(0 0 0.9999999153)
(0 0 0.9999999153)
(0 0 0.9999999153)
(0 0 0.9999999152)
(0 0 0.9999999303)
(0 0 0.9999999303)
(0 0 0.9999999302)
(0 0 0.9999999153)
(0 0 0.9999999152)
(0 -1.500000106e-08 0.9999999152)
(0 -1.500000106e-08 0.9999999152)
(0 0 0.9999999153)
(0 0 0.9999999152)
(0 0 0.9999999152)
(0 0 0.9999999153)
(0 0 0.9999999152)
(0 0 0.9999999153)
(0 0 0.9999999153)
(0 -1.500000002e-08 0.9999999153)
(0 -1.500000002e-08 0.9999999153)
(0 0 0.9999999153)
(0 0 0.9999999153)
(0 0 0.9999999303)
(0 0 0.9999999145)
(0 0 0.9999999145)
(0 0 0.9999999145)
(0 0 0.9999999145)
(0 0 0.9999999145)
(0 0 0.9999999145)
(0 0 0.9999999145)
(0 0 0.9999999145)
(0 0 0.9999999145)
(0 0 0.9999999145)
(0 0 0.9999999145)
(0 0 0.9999999145)
(0 0 0.9999999152)
(0 0 0.9999999153)
(0 0 0.9999999153)
(0 0 0.9999999153)
(0 0 0.9999999153)
(0 0 0.9999999153)
(0 0 0.9999999153)
(0 -1.500000418e-08 0.9999999153)
(0 -1.500000418e-08 0.9999999153)
(0 0 0.9999999152)
(0 0 0.9999999153)
(0 0 0.9999999153)
(0 0 0.9999999152)
(0 0 0.9999999152)
(0 0 0.9999999153)
(0 0 0.9999999003)
(0 0 0.9999999003)
(0 0 0.9999999002)
(0 0 0.9999999002)
(0 0 0.9999999002)
(0 0 0.9999999153)
(0 0 0.9999999152)
(0 0 0.9999999152)
(0 0 0.9999999153)
(0 0 0.9999999145)
(0 0 0.9999999145)
(0 -1.500000206e-08 0.9999999145)
(0 -1.500000206e-08 0.9999999145)
(0 0 0.9999999145)
(0 0 0.9999999145)
(0 0 0.9999999145)
(0 0 0.9999999145)
(0 0 0.9999999145)
(0 0 0.9999999145)
(0 0 0.9999999145)
(0 0 0.9999999145)
(0 0 0.9999999002)
(0 0 0.9999999002)
(0 0 0.9999999002)
(0 0 0.9999999152)
(0 0 0.9999999152)
(0 0 0.9999999152)
(0 0 0.9999999153)
(0 0 0.9999999152)
(0 0 0.9999999152)
(0 0 0.9999999152)
(0 0 0.9999999152)
(0 0 0.9999999152)
(0 0 0.9999999002)
(0 0 0.9999999003)
(0 0 0.9999999002)
(0 0 0.9999999003)
(0 0 0.9999999152)
(0 0 0.9999999153)
(0 0 0.9999999153)
(0 0 0.9999999152)
(0 0 0.9999999153)
(0 0 0.9999999152)
(0 0 0.9999999152)
(0 0 0.9999999152)
(0 0 0.9999999145)
(0 0 0.9999999145)
(0 0 0.9999999145)
(0 1.499999711e-08 0.9999999145)
(0 1.499999711e-08 0.9999999145)
(0 0 0.9999999145)
(0 0 0.9999999145)
(0 0 0.9999999145)
(0 0 0.9999999145)
(0 0 0.9999999145)
(0 0 0.9999999145)
(0 0 0.9999999145)
(0 0 0.9999999153)
(0 0 0.9999999152)
(0 0 0.9999999153)
(0 0 0.9999999152)
(0 0 0.9999999003)
(0 0 0.9999999002)
(0 0 0.9999999003)
(0 0 0.9999999003)
(0 0 0.9999999002)
(0 0 0.9999999003)
(0 0 0.9999999003)
(0 0 0.9999999003)
(0 0 0.9999999003)
(0 0 0.9999999003)
(0 0 0.9999999003)
(0 0 0.9999999003)
(0 0 0.9999999003)
(0 0 0.9999999153)
(0 0 0.9999999153)
(0 0 0.9999999153)
(0 0 0.9999999153)
(0 0 0.9999999153)
(0 0 0.9999999153)
(0 0 0.9999999153)
(0 0 0.9999998995)
(0 0 0.9999998995)
(0 0 0.9999998995)
(0 0 0.9999999145)
(0 1.499999816e-08 0.9999999145)
(0 1.499999816e-08 0.9999999145)
(0 0 0.9999999145)
(0 0 0.9999999145)
(0 0 0.9999999145)
(0 0 0.9999999145)
(0 0 0.9999999145)
(0 0 0.9999999145)
(0 0 0.9999999153)
(0 0 0.9999999153)
(0 1.50000021e-08 0.9999999153)
(0 1.50000021e-08 0.9999999152)
(0 0 0.9999999152)
(0 0 0.9999999002)
(0 0 0.9999999002)
(0 0 0.9999999002)
(0 0 0.9999999002)
(0 0 0.9999999002)
(0 0 0.9999999002)
(0 0 0.9999999002)
(0 0 0.9999999152)
(0 0 0.9999999152)
(0 0 0.9999999152)
(0 0 0.9999999002)
(0 0 0.9999999002)
(0 0 0.9999999002)
(0 0 0.9999999002)
(0 0 0.9999999002)
(0 0 0.9999999152)
(0 0 0.9999999153)
(0 0 0.9999999152)
(0 0 0.9999999152)
(0 0 0.9999998995)
(0 0 0.9999998995)
(0 0 0.9999998995)
(0 0 0.9999998995)
(0 0 0.9999998995)
(0 0 0.9999998995)
(0 0 0.9999999145)
(0 1.500000206e-08 0.9999999145)
(0 1.500000206e-08 0.9999999145)
(0 0 0.9999999145)
(0 0 0.9999999145)
(0 0 0.9999999145)
(0 0 0.9999999)
(0 0 0.9999999)
(0 0 0.9999999)
(0 0 0.9999999)
(0 0 0.999999915)
(0 1.49999982e-08 0.999999915)
(0 1.49999982e-08 0.999999915)
(0 0 0.999999915)
(0 0 0.9999999)
(0 0 0.9999999)
(0 0 0.9999999)
(0 0 0.9999999)
(0 0 0.9999999153)
(0 0 0.9999999152)
(0 0 0.9999999152)
(0 1.499999793e-08 0.9999999153)
(0 1.499999793e-08 0.9999999152)
(0 0 0.9999999153)
(0 0 0.9999999003)
(0 0 0.9999999003)
(0 0 0.9999999003)
(0 0 0.9999999003)
(0 0 0.9999999003)
(0 0 0.9999999003)
(0 0 0.999999915)
(0 0 0.9999999149)
(0 0 0.9999999149)
(0 0 0.999999915)
(0 0 0.9999999)
(0 0 0.9999999)
(0 0 0.9999999)
(0 0 0.9999999)
(0 0 0.9999999)
(0 0 0.9999999)
(0 0 0.9999999)
(0 0 0.9999999)
(0 0 0.9999999)
(0 0 0.9999999)
(0 0 0.9999999)
(0 0 0.9999999)
(0 0 0.9999999)
(0 0 0.9999999)
(0 0 0.9999999)
(0 0 0.9999999)
(0 0 0.9999999)
(0 0 0.9999999)
(0 0 0.9999999)
(0 0 0.9999999)
(0 0 0.9999999)
(0 0 0.9999999)
(0 0 0.9999999)
(0 0 0.9999999)
(0 0 0.9999999)
(0 0 0.9999999)
(0 0 0.9999999)
(0 0 0.9999999)
(0 0 0.9999999)
(0 0 0.9999999)
(0 0 0.9999999)
(0 0 0.9999999)
(0 0 0.9999999)
(0 0 0.9999999)
(0 0 0.9999999)
(0 0 0.9999999)
(0 0 0.9999999)
(0 0 0.9999999)
(0 0 0.9999999)
(0 0 0.9999999)
(0 0 0.9999999)
(0 0 0.9999999)
(0 0 0.9999999)
(0 0 0.9999999)
(0 0 0.9999999153)
(0 0 0.9999999152)
(0 0 0.9999999153)
(0 0 0.9999999153)
(0 0 0.9999999152)
(0 0 0.9999999152)
(0 0 0.9999999003)
(0 0 0.9999999003)
(0 0 0.9999999003)
(0 0 0.9999999003)
(0 0 0.9999999003)
(0 0 0.9999999003)
(0 0 0.999999915)
(0 0 0.999999915)
(0 0 0.999999915)
(0 0 0.999999915)
(0 0 0.999999915)
(0 -1.49999982e-08 0.999999915)
(0 -1.49999982e-08 0.999999915)
(0 0 0.999999915)
(0 0 0.9999999)
(0 0 0.9999999)
(0 0 0.9999999)
(0 0 0.9999999)
(0 0 0.9999998995)
(0 0 0.9999998995)
(0 0 0.9999998995)
(0 0 0.9999998995)
(0 0 0.9999998995)
(0 0 0.9999998995)
(0 0 0.9999999145)
(0 -1.50000018e-08 0.9999999145)
(0 -1.50000018e-08 0.9999999145)
(0 0 0.9999999145)
(0 0 0.9999998995)
(0 0 0.9999998995)
(0 0 0.9999999002)
(0 0 0.9999999002)
(0 0 0.9999999002)
(0 0 0.9999999002)
(0 0 0.9999999003)
(0 0 0.9999999002)
(0 0 0.9999999003)
(0 0 0.9999999003)
(0 0 0.9999999152)
(0 -1.50000021e-08 0.9999999153)
(0 -1.50000021e-08 0.9999999152)
(0 0 0.9999999003)
(0 0 0.9999999003)
(0 0 0.9999999003)
(0 0 0.9999999003)
(0 0 0.9999999002)
(0 0 0.9999999003)
(0 0 0.9999999002)
(0 0 0.9999999002)
(0 0 0.9999999003)
(0 0 0.9999999002)
(0 0 0.9999999003)
(0 -1.50000021e-08 0.9999999153)
(0 -1.50000021e-08 0.9999999153)
(0 0 0.9999998995)
(0 0 0.9999998995)
(0 0 0.9999998995)
(0 0 0.9999998995)
(0 0 0.9999998995)
(0 0 0.9999998995)
(0 0 0.9999998995)
(0 0 0.9999998995)
(0 0 0.9999998995)
(0 0 0.9999998995)
(0 0 0.9999998995)
(0 0 0.9999998995)
(0 0 0.9999999002)
(0 0 0.9999999003)
(0 0 0.9999999002)
(0 0 0.9999999003)
(0 0 0.9999998852)
(0 0 0.9999998853)
(0 0 0.9999998853)
(0 0 0.9999998852)
(0 0 0.9999998853)
(0 0 0.9999998852)
(0 -1.49999982e-08 0.9999998852)
(0 -1.49999982e-08 0.9999998852)
(0 0 0.9999999002)
(0 0 0.9999999002)
(0 0 0.9999998852)
(0 -1.500000106e-08 0.9999998853)
(0 -1.500000106e-08 0.9999998853)
(0 0 0.9999998853)
(0 0 0.9999998853)
(0 0 0.9999998853)
(0 0 0.9999998853)
(0 0 0.9999998853)
(0 0 0.9999998852)
(0 0 0.9999999002)
(0 0 0.9999998845)
(0 -1.500000115e-08 0.9999998845)
(0 -1.500000115e-08 0.9999998845)
(0 0 0.9999998845)
(0 0 0.9999998995)
(0 0 0.9999998995)
(0 0 0.9999998995)
(0 0 0.9999998995)
(0 0 0.9999998995)
(0 0 0.9999998995)
(0 0 0.9999998995)
(0 0 0.9999998995)
(0 0 0.9999998852)
(0 0 0.9999998852)
(0 0 0.9999999003)
(0 0 0.9999999002)
(0 0 0.9999998852)
(0 0 0.9999998852)
(0 0 0.9999998852)
(0 0 0.9999998852)
(0 0 0.9999998852)
(0 0 0.9999998852)
(0 0 0.9999998852)
(0 0 0.9999998852)
(0 0 0.9999998852)
(0 0 0.9999998853)
(0 0 0.9999998853)
(0 -1.499999911e-08 0.9999998853)
(0 -1.499999911e-08 0.9999998853)
(0 0 0.9999998853)
(0 0 0.9999998853)
(0 0 0.9999998852)
(0 0 0.9999998853)
(0 0 0.9999998702)
(0 0 0.9999998702)
(0 0 0.9999998703)
(0 0 0.9999998695)
(0 0 0.9999998695)
(0 0 0.9999998695)
(0 0 0.9999998695)
(0 0 0.9999998845)
(0 0 0.9999998845)
(0 0 0.9999998845)
(0 0 0.9999998845)
(0 -1.499999907e-08 0.9999998845)
(0 -1.499999907e-08 0.9999998845)
(0 0 0.9999998845)
(0 0 0.9999998845)
(0 0 0.9999998777)
(0 0 0.9999998778)
(0 0 0.9999998777)
(0 0 0.9999998777)
(0 0 0.9999998777)
(0 0 0.9999998777)
(0 0 0.9999998762)
(0 0 0.9999998747)
(0 0 0.9999998732)
(0 0 0.9999998853)
(0 0 0.9999998853)
(0 0 0.9999998838)
(0 0 0.9999998808)
(0 0 0.9999998808)
(0 0 0.9999998807)
(0 0 0.9999998807)
(0 0 0.9999998807)
(0 -1.49999943e-09 0.9999998808)
(0 -2.99999977e-09 0.9999998793)
(0 -3.000000811e-09 0.9999998778)
(0 -4.499995298e-09 0.9999998763)
(0 -2.999994827e-09 0.9999998748)
(0 -1.500002422e-09 0.9999998733)
(0 -1.500002422e-09 0.9999998733)
(0 0 0.999999874)
(0 0 0.999999874)
(0 0 0.999999874)
(0 0 0.999999874)
(0 0 0.999999874)
(0 -1.499999425e-09 0.999999874)
(0 -3.000000802e-09 0.999999874)
(0 -3.000000802e-09 0.999999874)
(0 -3.000001843e-09 0.999999874)
(0 -2.99999781e-09 0.9999998755)
(0 -1.499995393e-09 0.9999998755)
(0 0 0.9999998755)
(0 0 0.9999998717)
(0 0 0.9999998718)
(0 0 0.9999998717)
(0 0 0.9999998718)
(0 0 0.9999998718)
(0 -1.500001381e-09 0.9999998703)
(0 -3.000002762e-09 0.9999998718)
(0 -3.000000811e-09 0.9999998718)
(0 -2.999998729e-09 0.9999998717)
(0 -1.499999299e-09 0.9999998717)
(0 -1.499998389e-09 0.9999998732)
(0 -1.499998389e-09 0.9999998717)
(0 0 0.9999998687)
(0 0 0.9999998687)
(0 0 0.9999998688)
(0 0 0.9999998688)
(0 -1.499997348e-09 0.9999998688)
(0 -1.499997348e-09 0.9999998672)
(0 -1.500002422e-09 0.9999998688)
(0 -3.000000811e-09 0.9999998688)
(0 -2.999999901e-09 0.9999998688)
(0 -1.500001512e-09 0.9999998703)
(0 -1.499996438e-09 0.9999998702)
(0 -1.499996438e-09 0.9999998702)
(0 0 0.999999865)
(0 0 0.999999865)
(0 0 0.999999865)
(0 0 0.999999865)
(0 -1.500001507e-09 0.999999865)
(0 -1.500001507e-09 0.999999865)
(0 -1.499999295e-09 0.999999865)
(0 -2.999998851e-09 0.999999865)
(0 -1.499999556e-09 0.9999998665)
(0 0 0.9999998665)
(0 -1.499997344e-09 0.9999998665)
(0 -1.499997344e-09 0.999999868)
(0 0 0.9999998612)
(0 0 0.9999998613)
(0 0 0.9999998613)
(0 0 0.9999998613)
(0 -1.499997479e-09 0.9999998613)
(0 -1.499997479e-09 0.9999998628)
(0 -1.500001512e-09 0.9999998613)
(0 -1.500001512e-09 0.9999998628)
(0 -1.499997348e-09 0.9999998627)
(0 -1.499997348e-09 0.9999998627)
(0 0 0.9999998628)
(0 0 0.9999998628)
(0 0 0.9999998582)
(0 0 0.9999998583)
(0 0 0.9999998583)
(0 0 0.9999998583)
(0 0 0.9999998583)
(0 -1.500001381e-09 0.9999998597)
(0 -1.500001381e-09 0.9999998582)
(0 -1.500001381e-09 0.9999998597)
(0 -1.500001381e-09 0.9999998597)
(0 0 0.9999998597)
(0 -1.499999299e-09 0.9999998597)
(0 -1.499999299e-09 0.9999998598)
(0 0 0.999999853)
(0 0 0.999999853)
(0 0 0.9999998545)
(0 0 0.9999998545)
(0 0 0.9999998545)
(0 -1.499999425e-09 0.9999998545)
(0 -1.499999425e-09 0.999999856)
(0 0 0.999999856)
(0 -1.499999295e-09 0.9999998575)
(0 -1.499999295e-09 0.999999856)
(0 0 0.9999998575)
(0 0 0.9999998575)
(0 0 0.9999998493)
(0 1.499997348e-09 0.9999998493)
(0 1.499997348e-09 0.9999998492)
(0 0 0.9999998508)
(0 0 0.9999998508)
(0 0 0.9999998507)
(0 0 0.9999998523)
(0 0 0.9999998523)
(0 -1.49999943e-09 0.9999998523)
(0 0 0.9999998538)
(0 0 0.9999998537)
(0 -1.49999943e-09 0.9999998538)
(0 0 0.9999998463)
(0 0 0.9999998478)
(0 1.49999943e-09 0.9999998463)
(0 1.49999943e-09 0.9999998477)
(0 0 0.9999998493)
(0 0 0.9999998492)
(0 0 0.9999998492)
(0 0 0.9999998493)
(0 0 0.9999998493)
(0 0 0.9999998508)
(0 0 0.9999998493)
(0 0 0.9999998508)
(0 1.499997474e-09 0.999999844)
(0 1.499997474e-09 0.999999844)
(0 1.499997213e-09 0.9999998455)
(0 3.000000671e-09 0.999999844)
(0 1.500003458e-09 0.9999998455)
(0 0 0.999999847)
(0 0 0.999999847)
(0 0 0.9999998485)
(0 0 0.9999998485)
(0 0 0.9999998485)
(0 0 0.999999847)
(0 0 0.999999847)
(0 0 0.9999998417)
(0 1.500001512e-09 0.9999998418)
(0 1.500001512e-09 0.9999998432)
(0 1.499997348e-09 0.9999998433)
(0 3.000002892e-09 0.9999998432)
(0 1.500005544e-09 0.9999998448)
(0 1.499995267e-09 0.9999998448)
(0 1.499995267e-09 0.9999998447)
(0 0 0.9999998448)
(0 -1.49999943e-09 0.9999998447)
(0 -1.49999943e-09 0.9999998447)
(0 0 0.9999998432)
(0 1.500004569e-09 0.9999998388)
(0 2.999998729e-09 0.9999998387)
(0 2.999995672e-09 0.9999998388)
(0 3.000001917e-09 0.9999998418)
(0 3.000001917e-09 0.9999998418)
(0 1.500001512e-09 0.9999998432)
(0 0 0.9999998432)
(0 0 0.9999998418)
(0 0 0.9999998417)
(0 0 0.9999998417)
(0 -1.500001512e-09 0.9999998417)
(0 -1.500001512e-09 0.9999998418)
(0 0 0.9999998365)
(0 1.500004564e-09 0.9999998365)
(0 4.500001333e-09 0.999999838)
(0 4.499996195e-09 0.9999998395)
(0 4.500002309e-09 0.999999841)
(0 3.000002883e-09 0.999999841)
(0 0 0.9999998425)
(0 0 0.9999998425)
(0 0 0.999999841)
(0 -1.499997344e-09 0.9999998395)
(0 -1.499997344e-09 0.9999998395)
(0 0 0.9999998395)
(0 1.499997348e-09 0.999999835)
(0 4.499998159e-09 0.9999998365)
(0 6.000003703e-09 0.999999838)
(0 5.99999967e-09 0.999999838)
(0 4.499999265e-09 0.999999841)
(0 3.000002892e-09 0.9999998395)
(0 1.500000405e-09 0.999999841)
(0 -1.500000405e-09 0.999999841)
(0 -3.000000811e-09 0.9999998395)
(0 -1.500000405e-09 0.999999838)
(0 -1.500002487e-09 0.9999998365)
(0 -1.500002487e-09 0.9999998365)
(0 1.499996256e-09 0.9999998327)
(0 4.499997224e-09 0.9999998343)
(0 6.000000831e-09 0.9999998358)
(0 7.499998062e-09 0.9999998372)
(0 5.999999724e-09 0.9999998388)
(0 3.000001944e-09 0.9999998417)
(0 1.500000419e-09 0.9999998417)
(0 -1.500000419e-09 0.9999998403)
(0 -3.000000838e-09 0.9999998403)
(0 -4.500000281e-09 0.9999998373)
(0 -2.999999862e-09 0.9999998357)
(0 0 0.9999998343)
(0 3.000000748e-09 0.999999829)
(0 7.499999788e-09 0.9999998305)
(0 9.000000292e-09 0.9999998335)
(0 8.999999317e-09 0.999999838)
(0 8.999998211e-09 0.999999841)
(0 6.00000052e-09 0.999999844)
(0 2.27119258e-25 0.999999844)
(0 -2.999998666e-09 0.9999998425)
(0 -5.999999414e-09 0.999999838)
(0 -6.000001495e-09 0.9999998365)
(0 -4.500001252e-09 0.9999998335)
(0 -3.000000878e-09 0.9999998305)
(0 2.999997781e-09 0.999999826)
(0 8.999999587e-09 0.999999829)
(0 1.350000403e-08 0.999999832)
(0 1.500000347e-08 0.999999838)
(0 1.199999112e-08 0.999999844)
(0 5.999997643e-09 0.9999998455)
(0 1.249000709e-14 0.9999998455)
(0 -7.500003331e-09 0.9999998425)
(0 -9.000005832e-09 0.999999838)
(0 -8.999994448e-09 0.9999998335)
(0 -9.000001668e-09 0.999999829)
(0 -3.000005001e-09 0.9999998275)
(0 6.000002782e-09 0.9999998215)
(0 1.350000403e-08 0.999999826)
(0 1.79999982e-08 0.999999832)
(0 2.099999904e-08 0.9999998395)
(0 1.650000071e-08 0.9999998455)
(0 7.499999037e-09 0.9999998485)
(0 -2.999999862e-09 0.9999998485)
(0 -1.050000001e-08 0.9999998455)
(0 -1.499999918e-08 0.9999998395)
(0 -1.500000543e-08 0.999999832)
(0 -1.050000001e-08 0.999999826)
(0 -4.499994036e-09 0.9999998245)
(0 7.499998943e-09 0.99999982)
(0 1.949999901e-08 0.9999998245)
(0 2.700000088e-08 0.9999998335)
(0 2.850000236e-08 0.9999998425)
(0 2.100000036e-08 0.99999985)
(0 8.999999186e-09 0.9999998545)
(0 -2.999998666e-09 0.999999853)
(0 -1.650000119e-08 0.9999998485)
(0 -2.2500006e-08 0.999999841)
(0 -2.249999976e-08 0.999999832)
(0 -1.649999605e-08 0.999999823)
(0 -4.500000146e-09 0.9999998215)
(0 1.050000417e-08 0.999999817)
(0 2.700000487e-08 0.999999823)
(0 3.599999405e-08 0.999999835)
(0 3.749999766e-08 0.999999847)
(0 2.850000224e-08 0.999999856)
(0 1.049999792e-08 0.999999862)
(0 -8.999997505e-09 0.999999859)
(0 -2.249999835e-08 0.9999998515)
(0 -3.150000405e-08 0.9999998425)
(0 -3.300000349e-08 0.999999829)
(0 -2.100000209e-08 0.9999998215)
(0 -6.000001806e-09 0.9999998185)
(0 1.349999987e-08 0.9999998155)
(0 3.749999974e-08 0.9999998215)
(0 5.100000218e-08 0.9999998365)
(0 4.949999968e-08 0.9999998515)
(0 3.599999932e-08 0.9999998635)
(0 1.200000153e-08 0.9999998695)
(0 -1.349999411e-08 0.999999868)
(0 -3.299999995e-08 0.999999859)
(0 -4.500000821e-08 0.999999844)
(0 -4.350000204e-08 0.999999829)
(0 -2.700000022e-08 0.9999998185)
(0 -7.500000143e-09 0.9999998125)
(0 1.650000021e-08 0.9999998095)
(0 4.800000442e-08 0.9999998185)
(0 6.600000819e-08 0.999999835)
(0 6.449999582e-08 0.999999856)
(0 4.64999967e-08 0.999999874)
(0 1.500000081e-08 0.999999883)
(0 -1.949999998e-08 0.9999998815)
(0 -4.650000037e-08 0.999999868)
(0 -6.149999972e-08 0.999999847)
(0 -5.849999946e-08 0.9999998275)
(0 -3.750000424e-08 0.9999998125)
(0 -1.200000006e-08 0.9999998035)
(0 2.250000411e-08 0.999999787)
(0 6.300000371e-08 0.999999802)
(0 8.849999567e-08 0.9999998275)
(0 8.849999567e-08 0.9999998605)
(0 6.299999955e-08 0.999999889)
(0 1.950000008e-08 0.999999907)
(0 -2.850000015e-08 0.9999999055)
(0 -6.750000031e-08 0.999999886)
(0 -8.549999998e-08 0.999999853)
(0 -7.799999616e-08 0.999999823)
(0 -5.10000001e-08 0.9999997975)
(0 -1.650000389e-08 0.9999997825)
(0 3.150000418e-08 0.999999748)
(0 8.850000449e-08 0.9999997675)
(0 1.245000043e-07 0.999999808)
(0 1.260000042e-07 0.9999998635)
(0 9.299999963e-08 0.999999919)
(0 3.149999953e-08 0.9999999535)
(0 -4.050000425e-08 0.999999955)
(0 -9.900000033e-08 0.9999999205)
(0 -1.245000001e-07 0.9999998665)
(0 -1.140000038e-07 0.9999998095)
(0 -7.799999983e-08 0.9999997645)
(0 -2.700000022e-08 0.999999742)
(0 4.20000039e-08 0.999999673)
(0 1.229999958e-07 0.9999997015)
(0 1.844999918e-07 0.999999769)
(0 1.995000041e-07 0.999999871)
(0 1.530000001e-07 0.999999976)
(0 5.549999601e-08 1.000000042)
(0 -6.150000021e-08 1.000000047)
(0 -1.560000008e-07 0.9999999835)
(0 -1.965000007e-07 0.9999998815)
(0 -1.799999963e-07 0.999999775)
(0 -1.184999956e-07 0.999999706)
(0 -3.899999948e-08 0.999999673)
(0 5.999999993e-08 0.9999995653)
(0 1.844999957e-07 0.999999592)
(0 2.939999957e-07 0.9999997005)
(0 3.330000001e-07 0.9999998842)
(0 2.640000042e-07 1.000000078)
(0 1.020000044e-07 1.000000204)
(0 -9.900000401e-08 1.000000206)
(0 -2.64000004e-07 1.000000086)
(0 -3.330000001e-07 0.9999998934)
(0 -2.895000004e-07 0.9999997084)
(0 -1.8e-07 0.9999995969)
(0 -5.999999993e-08 0.9999995668)
(0 6.869999571e-08 0.9999994388)
(0 2.581499998e-07 0.9999994081)
(0 4.767000043e-07 0.9999995621)
(0 5.773500045e-07 0.9999998926)
(0 4.723500001e-07 1.000000256)
(0 1.834499956e-07 1.00000049)
(0 -1.788000002e-07 1.000000489)
(0 -4.688999999e-07 1.000000257)
(0 -5.7435e-07 0.9999998938)
(0 -4.764000042e-07 0.9999995636)
(0 -2.601000042e-07 0.9999994068)
(0 -6.915000019e-08 0.9999994381)
(0 2.925000402e-08 0.9999993448)
(0 3.077999955e-07 0.9999990465)
(0 7.784999959e-07 0.9999992512)
(0 1.0272e-06 0.9999998685)
(0 8.61e-07 1.000000562)
(0 3.345000083e-07 1.000001003)
(0 -3.318000001e-07 1.000001001)
(0 -8.590500041e-07 1.000000558)
(0 -1.026150004e-06 0.9999998641)
(0 -7.765499959e-07 0.9999992457)
(0 -3.055499996e-07 0.9999990433)
(0 -2.865000818e-08 0.9999993426)
(0 -2.296500041e-07 0.9999995521)
(0 1.645499958e-07 0.9999981803)
(0 1.2987e-06 0.9999985239)
(0 1.887750005e-06 0.9999997642)
(0 1.6065e-06 1.000001114)
(0 6.232499958e-07 1.000001957)
(0 -6.232499999e-07 1.000001956)
(0 -1.6062e-06 1.000001112)
(0 -1.88685e-06 0.9999997612)
(0 -1.2972e-06 0.99999852)
(0 -1.631999999e-07 0.9999981738)
(0 2.300999999e-07 0.9999995446)
)
;

boundaryField
{
    inlet
    {
        type            fixedValue;
        value           uniform (0 0 1);
    }
    walls
    {
        type            fixedValue;
        value           uniform (0 0 0);
    }
    outlet
    {
        type            zeroGradient;
    }
    defaultFaces
    {
        type            empty;
    }
}


// ************************************************************************* //
