/*--------------------------------*- C++ -*----------------------------------*\
| =========                 |                                                 |
| \\      /  F ield         | OpenFOAM: The Open Source CFD Toolbox           |
|  \\    /   O peration     | Version:  v2012                                 |
|   \\  /    A nd           | Website:  www.openfoam.com                      |
|    \\/     M anipulation  |                                                 |
\*---------------------------------------------------------------------------*/
FoamFile
{
    version     2.0;
    format      ascii;
    class       volScalarField;
    location    "0";
    object      Phi;
}
// * * * * * * * * * * * * * * * * * * * * * * * * * * * * * * * * * * * * * //

dimensions      [0 2 -1 0 0 0 0];


internalField   nonuniform List<scalar> 
228296
(
0.298029
0.297965
0.298493
0.184508
0.184782
0.184458
0.167662
0.167265
0.167718
0.00185634
0.00182769
0.00140089
0.300011
0.300547
0.300214
0.235385
0.23527
0.235685
0.298845
0.298455
0.298951
0.293015
0.293446
0.29275
0.293152
0.293506
0.292825
0.182768
0.182906
0.183066
0.183477
0.183795
0.183688
0.299627
0.299316
0.299575
0.299039
0.299306
0.298997
0.299859
0.299562
0.299809
0.300086
0.299957
0.300434
0.269888
0.269269
0.269876
0.000599483
0.00104433
0.000606993
0.2994
0.299615
0.299313
0.291028
0.290731
0.291404
0.181942
0.182075
0.182223
0.169159
0.168741
0.168868
0.00158261
0.00158829
0.00120121
0.297769
0.297698
0.298007
0.288904
0.289529
0.289196
0.22976
0.229309
0.230111
0.000689313
0.0011866
0.000689153
0.183343
0.183135
0.183491
0.299314
0.298989
0.299234
0.298344
0.298688
0.298552
0.298392
0.298246
0.298577
0.185676
0.18598
0.185763
0.290234
0.290864
0.290571
0.287853
0.288571
0.288282
0.160964
0.161205
0.160876
0.229233
0.22901
0.229822
0.294987
0.294398
0.294825
0.00125206
0.00171022
0.00162718
0.228065
0.227709
0.227978
0.000615405
0.0010548
0.000619304
0.182221
0.182018
0.182323
0.201943
0.2015
0.20202
0.299226
0.299254
0.298736
0.195399
0.195674
0.195584
0.297666
0.297425
0.297747
0.00153299
0.00205868
0.0018709
0.183026
0.183111
0.183339
0.000753562
0.000715501
0.00117106
0.298529
0.298892
0.298579
0.301417
0.300764
0.300967
0.0256578
0.0254436
0.02522
0.300993
0.300515
0.300625
0.297265
0.297625
0.297412
0.228012
0.227564
0.228317
0.0268973
0.026741
0.0265351
0.000673196
0.000621819
0.00106716
0.17052
0.170867
0.170773
0.00189641
0.00151442
0.00203895
0.294699
0.294873
0.294348
0.186581
0.186479
0.18634
0.227275
0.228062
0.227527
0.296547
0.296048
0.296209
0.284885
0.284318
0.285028
0.300579
0.300289
0.300587
0.300253
0.299956
0.300052
0.301968
0.301793
0.301499
0.268452
0.269046
0.268414
0.286564
0.286734
0.287147
0.296674
0.29705
0.29677
0.283914
0.283704
0.284466
0.301891
0.301617
0.301401
0.297234
0.296945
0.297324
0.181282
0.181607
0.181392
0.181676
0.181463
0.181757
0.303225
0.302951
0.302778
0.000597437
0.00103474
0.000604352
0.00149215
0.00115259
0.00153127
0.000605638
0.00108491
0.000653023
0.0010819
0.00142631
0.00144923
0.000481489
0.000878732
0.000508426
0.28617
0.285341
0.285906
0.285628
0.285995
0.285186
0.300393
0.30072
0.300647
0.00115815
0.00153201
0.00150599
0.299929
0.299915
0.300181
0.000637573
0.000642506
0.00101339
0.0391825
0.0389236
0.0392569
0.0812293
0.0812753
0.0815535
0.265594
0.265607
0.266106
0.00100226
0.000584093
0.000653798
0.303508
0.303527
0.303098
0.000469256
0.00082408
0.000458868
0.281119
0.281909
0.281654
0.180762
0.181085
0.180858
0.165795
0.165932
0.166203
0.000603121
0.000598454
0.000977021
0.0795778
0.0796892
0.0799193
0.161082
0.161284
0.16095
0.299007
0.299041
0.298614
0.166906
0.166549
0.166907
0.000618481
0.000617267
0.000981403
0.301339
0.300803
0.301246
0.183994
0.183744
0.183939
0.0423969
0.0419585
0.0421884
0.298479
0.298018
0.298144
0.297919
0.298441
0.297964
0.300375
0.300823
0.300298
0.296306
0.296604
0.296673
0.2871
0.286274
0.286618
0.0729481
0.0733567
0.0731176
0.30052
0.300846
0.30078
0.301988
0.301395
0.301835
0.0577372
0.0572965
0.057655
0.00189845
0.00224603
0.00195659
0.00046043
0.000456646
0.000762253
0.179416
0.179331
0.179607
0.300088
0.300057
0.300346
0.000510544
0.000903092
0.000516022
0.183307
0.183302
0.183113
0.226386
0.225899
0.226645
0.283645
0.284551
0.284187
0.00155174
0.00147848
0.0011634
0.282602
0.282434
0.283151
0.23904
0.239635
0.239224
0.182707
0.182967
0.182764
0.283948
0.284451
0.284584
0.3007
0.300214
0.300396
0.29926
0.298751
0.29928
0.00136607
0.000973023
0.00131523
0.000535512
0.000927144
0.000526387
0.29558
0.29568
0.295942
0.00157341
0.00115708
0.00151219
0.299851
0.300549
0.300132
0.0487825
0.0492617
0.0488908
0.283591
0.283251
0.284262
0.296019
0.295764
0.296161
0.179784
0.179537
0.179823
0.000593774
0.00103872
0.000608439
0.00168586
0.00121019
0.00163026
0.178931
0.179264
0.178995
0.280231
0.28121
0.280644
0.294799
0.295192
0.294931
0.301386
0.301675
0.301165
0.000559339
0.000972947
0.000565288
0.00158769
0.00118614
0.0015992
0.0538668
0.0534492
0.053751
0.000634393
0.00109449
0.000642056
0.00163426
0.00122353
0.00167687
0.23736
0.237746
0.237866
0.295131
0.294907
0.295313
0.300329
0.300251
0.300553
0.29356
0.294017
0.293853
0.000547503
0.000953329
0.000551648
0.277689
0.278248
0.27863
0.237083
0.237611
0.2372
0.051488
0.051376
0.0511445
0.00152844
0.00114919
0.00153171
0.300218
0.299636
0.300001
0.299558
0.299962
0.299418
0.178857
0.179116
0.178846
0.000599721
0.00104
0.0006145
0.235852
0.235513
0.235975
0.298609
0.298295
0.298817
0.29299
0.29292
0.293289
0.00055458
0.000974316
0.000553071
0.00184358
0.00135577
0.00171378
0.000801907
0.00136367
0.000800483
0.00303475
0.0028535
0.00265884
0.00175731
0.00169781
0.00129638
0.298711
0.298438
0.298715
0.00124006
0.000737189
0.000808681
0.283158
0.282257
0.282895
0.000711459
0.00123808
0.000712726
0.00204993
0.00153635
0.00208126
0.280662
0.280292
0.281154
0.00184251
0.00133894
0.00177491
0.00336253
0.0029998
0.00298801
0.299767
0.300082
0.299953
0.00121279
0.000704336
0.000768811
0.00189256
0.00141461
0.00190462
0.00363538
0.00371645
0.00332455
0.293421
0.293327
0.293787
0.291853
0.292277
0.292054
0.281452
0.28235
0.281437
0.00307302
0.00269257
0.00274137
0.00187328
0.00140344
0.0018665
0.278587
0.279201
0.279193
0.0172215
0.0175119
0.0170515
0.0148615
0.0151619
0.0152499
0.225585
0.226372
0.225869
0.0814723
0.0810811
0.0813047
0.00328785
0.002923
0.00290827
0.000788088
0.00132003
0.000757022
0.278002
0.278815
0.278274
0.301092
0.300541
0.300983
0.29218
0.291941
0.292321
0.223879
0.224713
0.224174
0.00407802
0.00398914
0.0036644
0.0023506
0.00176134
0.00221978
0.00215847
0.00158921
0.00194341
0.290909
0.291347
0.291079
0.181506
0.181322
0.181265
0.283454
0.282605
0.283538
0.234808
0.234379
0.234798
0.277294
0.277479
0.27809
0.00369495
0.00331721
0.00331364
0.00419787
0.00425376
0.00387104
0.291376
0.291081
0.291511
0.00355021
0.00334506
0.00313081
0.288884
0.288561
0.289073
0.299942
0.300329
0.300247
0.290014
0.290493
0.290174
0.00287301
0.00328001
0.00285112
0.299512
0.299516
0.29979
0.00118604
0.00158824
0.00154182
0.000566783
0.000994325
0.00056678
0.289128
0.289676
0.28928
0.283001
0.282078
0.283029
0.00154394
0.00156996
0.00119473
0.280887
0.2819
0.280997
0.278518
0.277841
0.278711
0.00285097
0.00241884
0.00257812
0.0028619
0.00241613
0.00258321
0.00365706
0.00379181
0.00333898
0.301434
0.300947
0.301373
0.003519
0.00310053
0.00323683
0.290635
0.290277
0.29077
0.00389873
0.00347906
0.00390364
0.00319504
0.00273384
0.00284127
0.00354668
0.00358323
0.00317137
0.287564
0.287898
0.288031
0.281656
0.282385
0.281514
0.00302979
0.00263337
0.00269888
0.280944
0.281815
0.280804
0.300429
0.300866
0.300395
0.278012
0.27885
0.278502
0.00319631
0.0032996
0.00296292
0.00301364
0.00263437
0.00270103
0.298745
0.299107
0.298938
0.00335875
0.00341501
0.00309556
0.00284965
0.00252946
0.00257844
0.28853
0.287985
0.288289
0.00129853
0.00135071
0.00100251
0.178708
0.178967
0.178772
0.283727
0.282993
0.283664
0.282669
0.283113
0.282412
0.27863
0.279512
0.279199
0.00327248
0.00317777
0.00293933
0.28545
0.285117
0.285677
0.285147
0.284597
0.285113
0.269921
0.269361
0.269926
0.300084
0.299791
0.300168
0.301882
0.302095
0.301737
0.00157171
0.00117098
0.00144981
0.283838
0.284412
0.28384
0.158638
0.158898
0.159126
0.195486
0.194938
0.194981
0.299465
0.299484
0.299818
0.157443
0.157612
0.157852
0.00301999
0.00270612
0.00266806
0.302555
0.302085
0.302132
0.00297089
0.00287195
0.00261543
0.284754
0.284375
0.284985
0.179062
0.178886
0.179137
0.282367
0.283103
0.282758
0.282227
0.283065
0.282576
0.00280397
0.00257413
0.00245805
0.148319
0.147955
0.147969
0.00351413
0.00369487
0.00328618
0.0027716
0.00253542
0.00245196
0.00370406
0.00350328
0.00329464
0.29941
0.29954
0.299851
0.0026586
0.00234001
0.0023301
0.00334325
0.00326614
0.00298733
0.180498
0.180734
0.180621
0.301047
0.301374
0.300907
0.00304906
0.00274808
0.00271078
0.182807
0.18244
0.182521
0.182829
0.183021
0.182603
0.00376947
0.00365081
0.00341583
0.300209
0.300117
0.299904
0.0033141
0.00329391
0.00298872
0.184103
0.183695
0.18395
0.18393
0.184079
0.183702
0.182806
0.183235
0.182955
0.181842
0.182023
0.182153
0.00302693
0.00262118
0.00276686
0.00366891
0.00378486
0.00342574
0.00287389
0.00249482
0.00254958
0.177764
0.177605
0.17784
0.00322311
0.00328274
0.00294132
0.00345986
0.0033569
0.00312104
0.183254
0.18295
0.183413
0.184736
0.184277
0.184477
0.301194
0.300848
0.301042
0.184988
0.185008
0.184582
0.00281111
0.00251343
0.00251599
0.298565
0.297838
0.298583
0.00322959
0.0029201
0.00287792
0.185719
0.185295
0.185568
0.00539167
0.00549279
0.00498796
0.00451424
0.00409477
0.00402335
0.00406434
0.00390639
0.00367497
0.184356
0.184643
0.184185
0.00466861
0.00482718
0.00431662
0.171304
0.171382
0.1711
0.00546231
0.00515388
0.00513142
0.00383068
0.00332668
0.0034576
0.00404616
0.00414748
0.00373744
0.00413155
0.0040169
0.00372901
0.00568982
0.00578729
0.00542792
0.184541
0.184072
0.184359
0.00344942
0.00304354
0.00311298
0.00409473
0.00401429
0.00365743
0.181934
0.182122
0.181745
0.00504805
0.00467573
0.00479499
0.171421
0.171674
0.171602
0.00400476
0.00408616
0.00370331
0.17099
0.171184
0.170928
0.00520838
0.00526648
0.00495377
0.182144
0.181794
0.182014
0.00365121
0.00317884
0.00325043
0.171693
0.171404
0.17169
0.181034
0.181153
0.181321
0.00366562
0.00361431
0.00328608
0.171109
0.171135
0.171356
0.170126
0.170347
0.170392
0.170172
0.169898
0.170184
0.00344089
0.00305043
0.00308926
0.169599
0.169646
0.16988
0.181186
0.181443
0.181483
0.00483246
0.00457299
0.00455776
0.00554882
0.00542174
0.00523008
0.179599
0.179414
0.17977
0.00415295
0.00404222
0.00377086
0.301998
0.301735
0.301356
0.182894
0.183389
0.183138
0.00540445
0.00514095
0.00506321
0.178298
0.17856
0.178383
0.00392741
0.00360713
0.0035328
0.0048402
0.00468574
0.00443932
0.303069
0.303042
0.302655
0.193835
0.193335
0.193606
0.179959
0.179704
0.179933
0.195102
0.195079
0.195344
0.00641888
0.00625512
0.00603928
0.182855
0.183106
0.183287
0.0555436
0.0559527
0.0556421
0.00637621
0.00616886
0.00597368
0.00582875
0.00560458
0.00545524
0.00472478
0.00446908
0.00431137
0.190687
0.190845
0.191142
0.181009
0.18077
0.180965
0.179642
0.179847
0.179816
0.180436
0.180391
0.180604
0.00606293
0.00604456
0.00570628
0.0055804
0.00518777
0.0052922
0.177986
0.177712
0.17787
0.160415
0.159967
0.160332
0.0383425
0.0391843
0.03667
0.00592733
0.00599105
0.00563822
0.00535246
0.0049324
0.00504491
0.180623
0.181065
0.180854
0.0057809
0.00580834
0.00543994
0.236126
0.23633
0.236649
0.162433
0.162757
0.162694
0.00546258
0.00496342
0.00511818
0.00574199
0.00582581
0.00536646
0.0808334
0.0799424
0.0799211
0.00752607
0.00720935
0.00714765
0.00457937
0.00413966
0.00433959
0.00456129
0.00420559
0.00435895
0.0053131
0.0051743
0.00498926
0.170958
0.17127
0.170977
0.00353025
0.00338174
0.00316737
0.177779
0.177926
0.177666
0.00440407
0.00459889
0.00423742
0.178671
0.178386
0.178544
0.0033665
0.00355211
0.00313229
0.302566
0.302809
0.302352
0.15903
0.158721
0.159249
0.169821
0.17008
0.170059
0.00540402
0.00527593
0.00499556
0.22018
0.219869
0.220409
0.00455121
0.00427567
0.00416462
0.169433
0.169738
0.169447
0.184148
0.184398
0.183972
0.221226
0.221763
0.221441
0.162396
0.16217
0.161945
0.00476607
0.00435915
0.00457078
0.185269
0.184899
0.185226
0.181386
0.181856
0.181673
0.00370555
0.00348477
0.00330301
0.00459075
0.00479086
0.00435721
0.00363949
0.00320681
0.00339753
0.00497476
0.00478118
0.00459065
0.180616
0.180472
0.180899
0.00494779
0.00523099
0.00478489
0.162981
0.163566
0.163289
0.00392885
0.00375925
0.00352107
0.00384832
0.00360906
0.0034253
0.335919
0.335171
0.335458
0.00418209
0.00389315
0.00385527
0.00447225
0.0043815
0.00412427
0.198545
0.198232
0.199039
0.162195
0.162164
0.162449
0.00589094
0.00571102
0.0055332
0.301052
0.30033
0.30045
0.00484227
0.00477354
0.00451833
0.161925
0.162289
0.161763
0.00575657
0.00594781
0.00554061
0.00493546
0.00470243
0.00455517
0.162014
0.162017
0.162293
0.168734
0.169022
0.168887
0.00455363
0.00427511
0.00423888
0.163093
0.162856
0.16342
0.00531523
0.00521318
0.00495774
0.218467
0.219031
0.218672
0.179376
0.17937
0.179575
0.170521
0.170857
0.170676
0.171921
0.171738
0.171658
0.00505071
0.00474862
0.00471704
0.00473989
0.00439003
0.00436655
0.00493416
0.00450912
0.00474435
0.00555828
0.00558046
0.00525787
0.00500082
0.00464906
0.00474684
0.234324
0.234857
0.234513
0.00525042
0.00532402
0.00495051
0.191778
0.192143
0.192258
0.00458864
0.00418711
0.00433187
0.304154
0.304306
0.303861
0.172498
0.172448
0.172267
0.00463436
0.00439325
0.00426728
0.177712
0.177972
0.177804
0.23452
0.234867
0.235025
0.17203
0.172082
0.171807
0.00714366
0.00664764
0.00684926
0.00548621
0.0051541
0.00507505
0.23302
0.233261
0.233435
0.00719444
0.0073483
0.00690757
0.00639066
0.00592528
0.00612079
0.00728613
0.00698804
0.00698536
0.0060751
0.00604375
0.00571135
0.00640847
0.00658419
0.00611536
0.0056047
0.0051601
0.00533424
0.182785
0.183223
0.182973
0.268719
0.269206
0.26863
0.00721862
0.00676359
0.00691256
0.184372
0.184726
0.184411
0.00560615
0.00530631
0.00518888
0.183359
0.183005
0.183425
0.00777786
0.00775648
0.00745737
0.00640118
0.00605289
0.00618464
0.00715899
0.00737095
0.00693244
0.162952
0.163025
0.162738
0.00649142
0.00632209
0.006172
0.181433
0.181269
0.181684
0.00546788
0.00503705
0.00523661
0.300381
0.300914
0.300254
0.00749733
0.00727206
0.00712818
0.169668
0.169579
0.169839
0.00542944
0.00517097
0.00505185
0.00641834
0.00624159
0.00600411
0.193823
0.19378
0.194052
0.182378
0.182753
0.182361
0.162219
0.162502
0.162259
0.183369
0.182983
0.183358
0.00623666
0.00591961
0.00581905
0.00872747
0.00850857
0.00832438
0.178749
0.178544
0.178631
0.00752327
0.00730967
0.00715141
0.0086895
0.00843556
0.00827947
0.0071567
0.00701818
0.00675703
0.184678
0.184323
0.184384
0.180162
0.18054
0.180309
0.168853
0.168729
0.168982
0.00764484
0.00743056
0.00726588
0.159549
0.159953
0.159521
0.180354
0.180233
0.180547
0.18248
0.182845
0.182477
0.183354
0.183002
0.183362
0.185074
0.185085
0.184769
0.184583
0.184244
0.184322
0.00728697
0.00695514
0.00700563
0.180285
0.180629
0.180362
0.17934
0.179523
0.179609
0.00770495
0.00770407
0.00737481
0.179283
0.179601
0.179435
0.169556
0.169306
0.169479
0.00719734
0.00681091
0.00688309
0.18249
0.182825
0.182494
0.00767916
0.00769182
0.00731589
0.00711907
0.0067208
0.00677885
0.00753787
0.00752501
0.00716595
0.00724733
0.00684543
0.00702474
0.00839294
0.00824634
0.00797256
0.00824108
0.00801686
0.00786342
0.178032
0.177846
0.178097
0.169184
0.169391
0.169139
0.172431
0.172322
0.172149
0.182391
0.182697
0.182413
0.00640664
0.00613309
0.00609792
0.178713
0.178936
0.179015
0.0054864
0.00513002
0.00534146
0.169994
0.169694
0.169908
0.178628
0.178763
0.178923
0.16952
0.169765
0.169467
0.00552847
0.00541313
0.00522459
0.181352
0.181632
0.181617
0.171986
0.172204
0.172304
0.00653618
0.00630127
0.00624369
0.177868
0.178041
0.178207
0.00683558
0.0068338
0.0065596
0.176984
0.17714
0.177285
0.00651279
0.00623468
0.00623993
0.00694827
0.00692766
0.00665132
0.179834
0.179561
0.17993
0.180743
0.180843
0.181081
0.00655148
0.00629953
0.00626358
0.170382
0.170063
0.170312
0.17605
0.176243
0.176369
0.00677553
0.00683914
0.00651639
0.178744
0.179146
0.17884
0.16986
0.170117
0.1698
0.00608154
0.00563371
0.00582702
0.00624278
0.00595749
0.00581047
0.172923
0.172717
0.172689
0.176249
0.176046
0.176393
0.00638101
0.00589969
0.0061925
0.179324
0.179046
0.179411
0.180416
0.180083
0.180239
0.170794
0.17045
0.170727
0.175188
0.175551
0.175297
0.00628639
0.00634362
0.00594905
0.00635601
0.00632772
0.00602478
0.17435
0.174541
0.174593
0.0058041
0.00545828
0.00546321
0.170027
0.170378
0.170035
0.178334
0.178674
0.178399
0.301667
0.30174
0.301074
0.00689896
0.00668967
0.00656509
0.180346
0.180451
0.180166
0.00706985
0.00697276
0.00672814
0.173387
0.173341
0.173128
0.174426
0.174181
0.174138
0.173665
0.173789
0.173935
0.00601441
0.00572063
0.0056968
0.170809
0.170473
0.170841
0.175601
0.175393
0.175709
0.178864
0.178617
0.17893
0.179561
0.179859
0.179622
0.178837
0.178867
0.178679
0.175162
0.175014
0.174823
0.173871
0.17368
0.173995
0.174612
0.17495
0.174714
0.00657298
0.00651737
0.00627113
0.0063938
0.00617948
0.00608139
0.0073583
0.00712852
0.00701835
0.178917
0.179259
0.179047
0.178064
0.178242
0.178336
0.00869206
0.00828331
0.00850532
0.00712499
0.00671505
0.00690023
0.00752052
0.00746181
0.00709213
0.00737202
0.00749842
0.00714127
0.00678212
0.00643571
0.00652129
0.0071684
0.00715533
0.00687456
0.160822
0.160288
0.160751
0.00672602
0.00633566
0.00642112
0.172119
0.172164
0.171879
0.00867909
0.0083278
0.00836011
0.176032
0.1757
0.175902
0.00724631
0.00718261
0.00684289
0.175061
0.174845
0.175124
0.191825
0.191665
0.192111
0.00701216
0.00672314
0.00659205
0.0082284
0.00796912
0.00781557
0.00873961
0.0082747
0.00847756
0.00828513
0.00805378
0.00785366
0.00940995
0.00924725
0.00899994
0.00870495
0.00884737
0.00843769
0.00797369
0.00753716
0.00768814
0.303088
0.303482
0.303143
0.173785
0.17347
0.173724
0.00915574
0.00882137
0.00877606
0.0100026
0.00986139
0.00957172
0.174433
0.174657
0.174409
0.172909
0.172993
0.173177
0.177508
0.177341
0.177645
0.175764
0.175943
0.175617
0.00861854
0.008379
0.00818892
0.177305
0.177447
0.177595
0.00845048
0.00838824
0.00801827
0.173342
0.173549
0.173241
0.176848
0.176683
0.176568
0.178538
0.178193
0.178383
0.00779993
0.00816182
0.00764657
0.172592
0.172486
0.17229
0.00664895
0.00644587
0.00619757
0.179636
0.179428
0.179447
0.00655488
0.00630235
0.00611801
0.176629
0.176488
0.176775
0.176493
0.176654
0.176778
0.00973798
0.00952542
0.00934215
0.179926
0.179929
0.179709
0.30088
0.301497
0.300838
0.00865135
0.00894881
0.00846512
0.192642
0.192649
0.192867
0.00772409
0.0075262
0.00733762
0.17202
0.172238
0.172317
0.226767
0.227413
0.227109
0.00974299
0.00954561
0.00935465
0.177948
0.178267
0.178034
0.176928
0.176916
0.17717
0.00967104
0.00991878
0.00945921
0.172959
0.173249
0.173068
0.00874329
0.00855894
0.00834358
0.00764605
0.00739568
0.00725872
0.179375
0.179623
0.179381
0.177133
0.17731
0.177354
0.1797
0.179949
0.179926
0.171964
0.171644
0.171746
0.173277
0.173073
0.173348
0.00854965
0.00823806
0.00816402
0.00928474
0.00922675
0.00892052
0.176098
0.175912
0.175824
0.172358
0.172521
0.172178
0.00890941
0.00858557
0.00857796
0.172966
0.173073
0.173212
0.177316
0.17758
0.177577
0.176962
0.176942
0.177263
0.00992524
0.00970864
0.00951913
0.174063
0.174087
0.174331
0.17175
0.171538
0.171475
0.177502
0.177798
0.177844
0.171796
0.171901
0.171601
0.174439
0.174542
0.174266
0.171277
0.171073
0.171033
0.171333
0.171429
0.17115
0.174493
0.174249
0.1746
0.173943
0.173723
0.173707
0.00877916
0.00843911
0.00855689
0.173127
0.172839
0.173043
0.0103573
0.00997459
0.00999343
0.00900965
0.00893864
0.0086989
0.170829
0.170631
0.170577
0.0107173
0.010606
0.0103057
0.175263
0.175388
0.175574
0.00979823
0.00950771
0.00941028
0.175616
0.175399
0.17571
0.00948954
0.00946094
0.0091564
0.00908289
0.00873445
0.00876489
0.00952885
0.00952901
0.00921235
0.170873
0.170969
0.17069
0.00908322
0.00874508
0.00876809
0.00985555
0.00969656
0.00945008
0.178577
0.178186
0.178477
0.00977693
0.00952262
0.00939396
0.177173
0.177002
0.177316
0.171783
0.172133
0.17183
0.00675825
0.00675775
0.00644112
0.177785
0.177947
0.178056
0.00642033
0.00617831
0.00612698
0.173356
0.17318
0.173029
0.170369
0.170165
0.170104
0.173218
0.172893
0.172997
0.189205
0.189478
0.189557
0.179482
0.179361
0.179706
0.00812248
0.00782594
0.00779847
0.00828185
0.00788314
0.00794139
0.00872991
0.00868074
0.00834235
0.00878784
0.00879418
0.00844375
0.00829839
0.00789727
0.00795266
0.17371
0.173679
0.173446
0.170465
0.170187
0.17036
0.00872451
0.00874049
0.00837348
0.0082552
0.00787825
0.00793504
0.00696234
0.00698858
0.00671629
0.171265
0.171111
0.17099
0.286826
0.286489
0.286969
0.0741095
0.0744902
0.0744038
0.0081387
0.00774019
0.0078575
0.284634
0.284766
0.285162
0.0787857
0.0790451
0.0791074
0.285999
0.285494
0.286021
0.00730091
0.00718081
0.00700968
0.00899039
0.00897847
0.00859867
0.302213
0.301576
0.302094
0.00726447
0.00712714
0.00697205
0.00898799
0.00862438
0.00893469
0.18112
0.181073
0.181348
0.180363
0.180047
0.180298
0.284462
0.285048
0.284588
0.00836812
0.00844752
0.00806822
0.285063
0.284753
0.285332
0.00796552
0.00802821
0.00769346
0.00776911
0.0073978
0.00749158
0.00753993
0.00725749
0.00725626
0.0084816
0.00808339
0.00811931
0.173406
0.173153
0.173149
0.177938
0.177785
0.178077
0.171154
0.17085
0.170926
0.171653
0.171359
0.171668
0.0078829
0.00766273
0.00754833
0.172694
0.172412
0.172463
0.00820462
0.00810154
0.00786715
0.181486
0.181748
0.181692
0.304482
0.304936
0.304625
0.00790284
0.00754699
0.00757762
0.00826819
0.0081464
0.00789754
0.283198
0.283791
0.28339
0.303586
0.303346
0.303731
0.265682
0.265653
0.2662
0.162731
0.162397
0.162725
0.00943529
0.00916846
0.00907832
0.173081
0.173078
0.172831
0.300919
0.301603
0.300918
0.16756
0.167962
0.167881
0.00797158
0.00783032
0.00763109
0.00898036
0.00881741
0.00866339
0.0107435
0.0104668
0.0104167
0.180956
0.181037
0.18126
0.00959934
0.00945316
0.00923928
0.22524
0.22554
0.225799
0.189042
0.188991
0.189338
0.0780846
0.0781035
0.0785159
0.302533
0.301868
0.302491
0.284864
0.285425
0.28515
0.0779101
0.0781949
0.0778081
0.00814851
0.00847776
0.0080899
0.304978
0.304711
0.305119
0.0091869
0.00877048
0.00915031
0.0107513
0.0103129
0.0103924
0.01121
0.0112554
0.0108372
0.00905838
0.00911649
0.00873462
0.00937474
0.00965234
0.00915548
0.0105606
0.0101362
0.0102095
0.0111625
0.011099
0.0107362
0.0109715
0.0107447
0.010603
0.306153
0.305768
0.306017
0.00976494
0.00958484
0.00932282
0.0108232
0.010472
0.0104106
0.180082
0.180243
0.17991
0.0109665
0.0111104
0.0107097
0.0101597
0.00970519
0.00993937
0.172747
0.172473
0.172501
0.302276
0.301802
0.301651
0.0816698
0.0815479
0.0811366
0.0116704
0.011565
0.011267
0.0100459
0.0097226
0.00964194
0.225328
0.225712
0.225906
0.0114331
0.0111239
0.0110522
0.266617
0.267272
0.267077
0.281719
0.281522
0.282079
0.266189
0.266041
0.266756
0.012324
0.0121724
0.0119132
0.177819
0.178119
0.177927
0.190352
0.190791
0.190513
0.169367
0.169012
0.169045
0.178542
0.178685
0.17881
0.0106105
0.0102977
0.010228
0.00924742
0.00875418
0.00913396
0.156636
0.155219
0.155181
0.178733
0.178581
0.17887
0.0108867
0.0106421
0.0104887
0.0100611
0.00960502
0.00991932
0.0111369
0.01092
0.0108158
0.0108669
0.0106444
0.0105147
0.0117484
0.0116106
0.0114227
0.0118807
0.0120796
0.0117134
0.0110621
0.0106384
0.0108696
0.181239
0.181561
0.181505
0.166383
0.166039
0.166503
0.172751
0.17267
0.172436
0.14707
0.150053
0.148438
0.214768
0.214502
0.214313
0.0108319
0.0104102
0.0104487
0.0113006
0.0113029
0.010932
0.223643
0.223974
0.224268
0.161937
0.162267
0.161929
0.0117074
0.0115501
0.0113826
0.0126994
0.0124771
0.0123877
0.011424
0.0114033
0.011036
0.305577
0.305889
0.305523
0.263454
0.264172
0.264013
0.306637
0.306216
0.30657
0.282317
0.283064
0.282484
0.180879
0.180856
0.181143
0.01224
0.0118783
0.0118223
0.0109522
0.0107888
0.0105882
0.0120208
0.0117582
0.0116977
0.0124499
0.0125191
0.0121422
0.0126858
0.0128206
0.0124796
0.173032
0.173063
0.172796
0.233264
0.233486
0.23376
0.178259
0.178021
0.178317
0.172632
0.172361
0.172379
0.0115478
0.0115339
0.0111716
0.0110008
0.0105823
0.0106729
0.172978
0.172973
0.172724
0.012354
0.0121213
0.0118867
0.0112077
0.0109749
0.0108019
0.17932
0.179498
0.179584
0.010631
0.0107535
0.0103383
0.0122037
0.011696
0.0119222
0.0131245
0.0129847
0.0127301
0.298156
0.298105
0.298359
0.0131026
0.0129559
0.0127034
0.298041
0.298382
0.298379
0.0102745
0.00985924
0.00990301
0.0108599
0.0108488
0.0104741
0.0103441
0.00994821
0.010002
0.0106602
0.0107363
0.0103579
0.181253
0.181567
0.181469
0.299573
0.299275
0.299355
0.0100754
0.00972856
0.00980346
0.298892
0.299319
0.299212
0.00870817
0.00872741
0.00840262
0.0102773
0.0103441
0.0100448
0.298458
0.298447
0.298835
0.298292
0.298576
0.298605
0.178509
0.178612
0.178825
0.00983657
0.00957227
0.00960655
0.179252
0.179615
0.179461
0.30276
0.302042
0.302654
0.179066
0.179096
0.179355
0.0103588
0.00996225
0.00997744
0.296996
0.297342
0.297317
0.0108231
0.0108058
0.0104359
0.298247
0.298278
0.298619
0.181747
0.181956
0.182132
0.010407
0.0102948
0.0100848
0.298097
0.298511
0.298299
0.0095594
0.00923794
0.00937044
0.0101639
0.0103389
0.0100118
0.297907
0.297974
0.29826
0.286884
0.286381
0.286775
0.296564
0.296907
0.296916
0.298911
0.299089
0.299244
0.180494
0.180645
0.180825
0.180573
0.180819
0.18094
0.00924486
0.00888141
0.00900789
0.223693
0.224064
0.224281
0.179519
0.17973
0.179933
0.298208
0.298073
0.29842
0.179719
0.179511
0.179969
0.296076
0.296012
0.296413
0.191247
0.191354
0.191497
0.178948
0.178688
0.179047
0.0097725
0.00981353
0.0095093
0.00935349
0.00914058
0.00899429
0.0103996
0.0101735
0.00999598
0.296898
0.297183
0.297341
0.296812
0.297353
0.297079
0.298429
0.298454
0.298745
0.0100307
0.00960419
0.00983746
0.0111555
0.0108969
0.0107507
0.011613
0.0113839
0.0112347
0.299031
0.29942
0.299304
0.0104143
0.010217
0.0100197
0.2958
0.295864
0.296189
0.285432
0.285593
0.285865
0.296287
0.296694
0.296637
0.00999831
0.00976888
0.00962019
0.0109921
0.0108028
0.0106052
0.0126247
0.0124727
0.0123014
0.0116428
0.0114647
0.0112682
0.294078
0.294582
0.294581
0.29679
0.296861
0.296409
0.00887395
0.00862498
0.00856294
0.298817
0.299168
0.299106
0.298965
0.299214
0.299241
0.162673
0.162476
0.162735
0.298385
0.298444
0.29866
0.233706
0.23334
0.233935
0.0124895
0.0122466
0.0121756
0.0112152
0.0111737
0.0108515
0.298748
0.299068
0.299023
0.00965109
0.00941067
0.00927113
0.29836
0.298362
0.298652
0.01334
0.0132627
0.0130267
0.293071
0.293151
0.293646
0.0108432
0.0105766
0.0103862
0.181777
0.181995
0.182167
0.0126985
0.0122967
0.0124279
0.180568
0.18083
0.180963
0.295693
0.296145
0.295718
0.0109193
0.0104142
0.0107319
0.0122206
0.0119786
0.0118071
0.0129545
0.0129909
0.0126508
0.28543
0.285914
0.285575
0.298746
0.29881
0.299014
0.0125759
0.0122735
0.0122559
0.0121551
0.0118808
0.011746
0.179154
0.179567
0.179386
0.293742
0.294299
0.29424
0.0134018
0.0132564
0.0130208
0.178853
0.178875
0.179233
0.179515
0.179183
0.179625
0.291279
0.291666
0.291837
0.0131806
0.0128387
0.0128036
0.293156
0.293791
0.293319
0.0125018
0.0120946
0.0121917
0.297779
0.298013
0.298048
0.0137765
0.0137373
0.0134284
0.178742
0.179155
0.179052
0.284051
0.284372
0.284423
0.0130453
0.0130032
0.0125995
0.0109114
0.0107904
0.0104835
0.013484
0.0132371
0.0131534
0.0144768
0.0142573
0.0140948
0.0125532
0.012115
0.0121185
0.178112
0.178177
0.178461
0.178363
0.178714
0.178575
0.283753
0.283882
0.284168
0.0133121
0.0132796
0.0128863
0.0127731
0.0123651
0.0124032
0.303723
0.303492
0.303103
0.0132808
0.012828
0.013118
0.17941
0.179322
0.179641
0.013119
0.0129293
0.0127117
0.014151
0.0139094
0.0143929
0.179964
0.180226
0.180297
0.0135072
0.0134013
0.0131473
0.0130413
0.0127014
0.0126545
0.297516
0.29754
0.297764
0.014277
0.0145274
0.0140814
0.179783
0.179894
0.180097
0.0127027
0.0129506
0.0130723
0.287984
0.287752
0.288434
0.289258
0.289678
0.289862
0.231863
0.23209
0.232274
0.291146
0.291791
0.291409
0.289132
0.289449
0.289759
0.29797
0.298279
0.298198
0.0147808
0.0144606
0.0143868
0.0138961
0.0140752
0.0143222
0.0125186
0.0124727
0.0128414
0.231834
0.232096
0.232298
0.181581
0.181863
0.182059
0.180609
0.180442
0.180899
0.0148229
0.0149953
0.0145649
0.287749
0.28794
0.288175
0.0136192
0.0131499
0.0135306
0.18051
0.180644
0.180882
0.181589
0.182138
0.181847
0.0131222
0.0126775
0.0127233
0.0139497
0.0135174
0.0137021
0.180749
0.181021
0.1811
0.0139898
0.0135508
0.0137635
0.287712
0.287885
0.288134
0.286197
0.286594
0.286635
0.296626
0.296926
0.296864
0.0134894
0.0135465
0.0131465
0.014958
0.0145172
0.0147386
0.302981
0.303436
0.302797
0.0137132
0.0135633
0.0133187
0.180589
0.180888
0.180923
0.304944
0.30425
0.304756
0.180124
0.180089
0.180418
0.305967
0.306263
0.305876
0.0136272
0.0133702
0.0131971
0.283649
0.284216
0.28423
0.285717
0.28582
0.286202
0.296137
0.296212
0.296453
0.180392
0.180538
0.180743
0.0147378
0.0145085
0.0143603
0.0145514
0.0141953
0.014212
0.0144501
0.0141348
0.0141071
0.0150213
0.0150461
0.0146948
0.307054
0.306678
0.306979
0.296304
0.296537
0.296627
0.0147633
0.0146724
0.0143983
0.0158745
0.0156291
0.0154833
0.282928
0.283653
0.283038
0.280598
0.281217
0.28117
0.295492
0.295606
0.295806
0.295642
0.295866
0.295943
0.279824
0.279904
0.280465
0.280435
0.280767
0.280914
0.277142
0.277861
0.277792
0.0119184
0.0115719
0.0117125
0.276115
0.276106
0.276926
0.287638
0.287116
0.28748
0.303988
0.304491
0.303807
0.294826
0.294961
0.295161
0.181752
0.182092
0.18185
0.283513
0.284267
0.283701
0.0115647
0.0111695
0.0113188
0.0116191
0.0113696
0.0112497
0.288888
0.288642
0.288527
0.307434
0.307087
0.307367
0.296059
0.296484
0.29618
0.0123863
0.012017
0.012054
0.012892
0.0128818
0.0125253
0.230728
0.23093
0.231153
0.0127776
0.0128039
0.012464
0.0123052
0.0119574
0.0119832
0.012893
0.0128115
0.012548
0.0127599
0.0125688
0.0124319
0.0121276
0.0121721
0.0118582
0.0134004
0.0130983
0.0131041
0.294963
0.29519
0.295282
0.28128
0.28184
0.281912
0.285292
0.284834
0.284563
0.221404
0.221961
0.221745
0.279744
0.280682