/*--------------------------------*- C++ -*----------------------------------*\
| =========                 |                                                 |
| \\      /  F ield         | OpenFOAM: The Open Source CFD Toolbox           |
|  \\    /   O peration     | Version:  v2012                                 |
|   \\  /    A nd           | Website:  www.openfoam.com                      |
|    \\/     M anipulation  |                                                 |
\*---------------------------------------------------------------------------*/
FoamFile
{
    version     2.0;
    format      ascii;
    class       volScalarField;
    location    "0";
    object      Plift4;
}
// * * * * * * * * * * * * * * * * * * * * * * * * * * * * * * * * * * * * * //

dimensions      [0 2 -2 0 0 0 0];


internalField   nonuniform List<scalar> 
228296
(
67.3229
67.3243
67.3546
43.2242
43.2324
43.2232
40.0375
40.0364
40.0459
0.808657
0.783191
0.739714
67.8031
67.8205
67.813
53.9428
53.9399
53.963
67.4814
67.4794
67.5069
65.9857
65.9839
65.95
65.983
65.9703
65.943
42.9085
42.9204
42.933
43.0688
43.0761
43.0815
67.397
67.3937
67.4021
67.3194
67.328
67.3187
67.4487
67.4405
67.4448
67.7094
67.7082
67.73
60.7616
60.7583
60.7762
0.379986
0.408328
0.366936
67.3936
67.3992
67.3892
65.5173
65.5025
65.5294
42.7335
42.7421
42.757
40.2334
40.2052
40.1985
0.69438
0.676239
0.63238
67.0864
67.0887
67.1049
65.1835
65.2332
65.2454
52.5624
52.5524
52.5754
0.456721
0.481337
0.435823
43.0093
43.0072
43.017
67.3435
67.335
67.344
67.2267
67.2414
67.2431
67.1846
67.1796
67.1948
43.4491
43.457
43.453
65.4573
65.4947
65.4983
64.8952
64.9387
64.9441
38.9371
38.941
38.935
52.4695
52.457
52.4851
66.3553
66.3322
66.3237
0.782706
0.831285
0.841302
52.5385
52.5299
52.5332
0.378626
0.405965
0.365848
42.7647
42.7601
42.7748
46.818
46.8162
46.8348
67.4506
67.4245
67.4075
45.4422
45.4557
45.4512
67.0804
67.076
67.0889
0.9611
1.00733
1.00748
42.9762
42.982
42.9916
0.514345
0.521701
0.582965
67.261
67.2719
67.2686
67.8951
67.8819
67.8598
9.63498
9.62224
9.60671
67.8122
67.787
67.7796
67.0218
67.0396
67.0356
52.2343
52.2304
52.2603
10.0083
9.99603
9.982
0.422775
0.429243
0.492777
40.7298
40.7488
40.7481
0.898425
0.889674
0.939058
66.3905
66.3852
66.3574
43.537
43.5292
43.5221
52.216
52.2496
52.2503
66.7322
66.7071
66.6955
64.0739
64.07
64.0978
67.5752
67.5683
67.5754
67.5242
67.5143
67.5097
67.9914
67.9867
67.9754
60.6054
60.6274
60.6117
64.5852
64.5861
64.6417
66.9295
66.9483
66.9446
63.9655
63.9581
64.014
67.9924
67.9758
67.9601
66.9646
66.9645
66.9762
42.6188
42.6353
42.6352
42.6557
42.6541
42.6679
68.289
68.2653
68.238
0.361633
0.383542
0.349264
0.686163
0.661043
0.675365
0.468885
0.512376
0.478223
0.677512
0.722634
0.73887
0.306372
0.343392
0.30001
64.443
64.3998
64.4066
64.487
64.4779
64.4371
67.5706
67.5815
67.5836
0.722851
0.76128
0.777471
67.4764
67.4811
67.4947
0.421143
0.433008
0.485792
13.7655
13.7599
13.7779
24.0012
24.0017
24.0248
59.9125
59.9248
59.9753
0.391066
0.357275
0.335718
68.3759
68.3707
68.3516
0.306796
0.325335
0.279555
63.5162
63.5998
63.6059
42.5045
42.5168
42.5159
39.6982
39.7048
39.721
0.353456
0.361234
0.410505
23.6073
23.6157
23.6429
38.9626
38.9637
38.9526
67.303
67.279
67.2523
39.8354
39.8348
39.8445
0.367709
0.378136
0.428263
67.8996
67.8869
67.9017
43.1285
43.1243
43.1299
14.5761
14.5658
14.5677
67.1586
67.1317
67.121
67.1976
67.2071
67.2001
67.7694
67.7831
67.7696
66.7911
66.8082
66.8235
64.7325
64.7257
64.7202
22.2635
22.2847
22.2785
67.5611
67.5756
67.5807
68.02
68.0079
68.0081
18.4143
18.4029
18.4154
1.13395
1.15814
1.13524
0.314444
0.333615
0.379491
42.2029
42.1993
42.2115
67.4675
67.4709
67.4875
0.320406
0.339975
0.297858
42.9547
42.9495
42.9434
51.8827
51.8777
51.9052
64.1683
64.2121
64.2458
0.628934
0.610735
0.562651
63.8866
63.8605
63.9218
54.8267
54.8507
54.8441
42.917
42.9219
42.9176
64.2892
64.3313
64.3417
67.7252
67.7102
67.7023
67.4984
67.4885
67.5068
0.610033
0.593677
0.615715
0.361165
0.3864
0.352325
66.5627
66.5722
66.5914
0.742256
0.714983
0.729341
67.7313
67.7646
67.7557
16.3713
16.3887
16.3816
64.0168
64.0115
64.0576
66.6143
66.6074
66.6267
42.2327
42.2296
42.2399
0.422195
0.45328
0.420253
0.747144
0.721445
0.73156
42.1224
42.1324
42.129
63.366
63.4466
63.4531
66.3501
66.3747
66.3776
67.9815
67.9856
67.9686
0.366527
0.399895
0.362152
0.714051
0.697054
0.716417
17.5265
17.5173
17.5219
0.449576
0.478232
0.445771
0.746643
0.727816
0.742131
54.4653
54.4787
54.5024
66.3072
66.3079
66.3305
67.4633
67.4637
67.4804
66.0015
66.0342
66.0478
0.365508
0.401845
0.358442
62.7906
62.8222
62.9129
54.4224
54.4371
54.4274
17.0349
17.0251
17.0163
0.75956
0.73307
0.7543
67.5413
67.5227
67.5243
67.5368
67.5389
67.5269
42.1263
42.1332
42.1257
0.36901
0.393607
0.358934
54.0336
54.0292
54.0536
67.2975
67.2892
67.2976
65.883
65.8779
65.9064
0.418154
0.454271
0.40239
0.897425
0.869947
0.883654
0.637004
0.676602
0.630968
1.39936
1.36726
1.33497
0.766455
0.744855
0.700139
67.2863
67.2855
67.2965
0.507912
0.462481
0.439488
63.8136
63.7964
63.8238
0.640472
0.67347
0.617101
1.00966
0.98562
1.00278
63.1904
63.171
63.2364
0.844068
0.817667
0.836134
1.43934
1.3906
1.35869
67.4096
67.4209
67.4194
0.606773
0.545302
0.497333
1.0108
0.981825
0.997612
1.65074
1.63034
1.58487
65.913
65.9101
65.9307
65.6503
65.6775
65.6826
63.6923
63.7224
63.7067
1.34927
1.30256
1.26691
0.898656
0.863505
0.878511
62.9436
62.9913
63.0299
6.88216
6.88203
6.85283
6.32496
6.34909
6.36505
51.8891
51.9185
51.9204
24.0995
24.092
24.0928
1.52687
1.48424
1.45411
0.508204
0.529588
0.477119
62.6726
62.7396
62.7174
67.7442
67.7331
67.7358
65.6145
65.6134
65.6355
51.5187
51.5543
51.5524
1.91748
1.89136
1.8442
1.02013
0.983885
0.992875
0.883252
0.822051
0.825532
65.4518
65.4687
65.4652
42.6256
42.6189
42.6109
63.9013
63.904
63.9251
54.7922
54.7885
54.8032
62.4758
62.502
62.5776
1.73748
1.69986
1.67001
2.03801
2.0067
1.95501
65.4782
65.475
65.4915
1.52804
1.50129
1.45951
64.977
64.9767
65.001
67.4868
67.4952
67.4947
65.2743
65.295
65.2902
1.39618
1.41031
1.3759
67.378
67.3781
67.3921
0.80834
0.837237
0.838209
0.3377
0.361266
0.312551
65.1158
65.1474
65.1439
63.582
63.5889
63.6229
0.663481
0.635759
0.594871
63.3764
63.4337
63.4096
62.7288
62.7173
62.7512
1.21533
1.17476
1.17507
1.25209
1.21338
1.22275
1.71825
1.71057
1.66477
67.7707
67.7653
67.7773
1.64356
1.59078
1.59388
65.3335
65.3297
65.3451
1.68934
1.67485
1.69005
1.34959
1.31283
1.28839
1.55962
1.53549
1.49339
64.7274
64.7403
64.7676
63.5188
63.5448
63.5153
1.27525
1.22913
1.19789
63.2873
63.3253
63.2936
67.6722
67.6831
67.677
62.7834
62.7994
62.7908
1.4561
1.4396
1.40166
1.29064
1.2651
1.24279
67.38
67.3982
67.4027
1.48685
1.46367
1.42075
1.21128
1.16032
1.13349
64.8612
64.8463
64.8423
0.622972
0.59988
0.556459
42.1413
42.1512
42.1478
63.7754
63.7645
63.7786
63.5943
63.6135
63.5782
62.8117
62.8478
62.8609
1.42747
1.40796
1.37092
64.2431
64.2387
64.2655
64.1972
64.2044
64.2289
60.8104
60.7933
60.8041
67.4435
67.4362
67.4463
67.7718
67.7709
67.7575
0.731473
0.706857
0.708764
63.9692
64.0031
64.0025
38.5215
38.5295
38.5367
48.0199
48.0543
48.0254
67.3615
67.3652
67.381
38.2763
38.2844
38.3036
1.29114
1.24567
1.21786
68.1146
68.1023
68.0962
1.37234
1.35884
1.3271
64.0025
63.9963
64.0144
42.1561
42.1547
42.1654
63.5814
63.6302
63.6398
63.6277
63.6646
63.6588
1.23962
1.20418
1.16428
36.7089
36.6976
36.6848
1.62403
1.62357
1.58162
1.22146
1.18119
1.14901
1.62952
1.60492
1.57257
67.5139
67.5235
67.5401
1.14746
1.10319
1.08353
1.4488
1.4285
1.3865
42.4986
42.5097
42.5107
67.7394
67.7404
67.7224
1.22788
1.1876
1.16474
42.9152
42.909
42.9019
42.9669
42.9574
42.95
1.60848
1.57025
1.52638
67.5192
67.5126
67.4998
1.46136
1.4452
1.40449
43.1763
43.1621
43.1541
43.187
43.1852
43.172
43.0468
43.0635
43.0667
42.8609
42.8652
42.883
1.22433
1.1908
1.18131
1.60639
1.59782
1.55069
1.24626
1.2042
1.18753
41.9119
41.9082
41.9163
1.48716
1.46164
1.41063
1.61975
1.58722
1.53229
43.0288
43.028
43.0448
43.2128
43.2009
43.2069
67.6459
67.6325
67.6327
43.2575
43.241
43.2243
1.23144
1.18601
1.15711
67.265
67.2523
67.2755
1.47075
1.41766
1.37063
43.3625
43.3527
43.3609
2.3357
2.32159
2.28401
1.93432
1.89058
1.85343
1.92591
1.8874
1.84027
43.1907
43.1909
43.1779
2.08867
2.07831
2.03223
40.6501
40.6469
40.6379
2.5611
2.5218
2.48867
1.67965
1.62711
1.61323
1.89002
1.87287
1.81247
1.9219
1.87837
1.8284
2.71815
2.70553
2.66384
43.1706
43.165
43.1679
1.52659
1.4851
1.47634
1.77844
1.75866
1.70506
42.7255
42.7258
42.7189
2.30829
2.26162
2.23453
40.6886
40.6978
40.6981
1.7963
1.77011
1.71705
40.6017
40.6083
40.6008
2.54172
2.51715
2.46775
42.7666
42.762
42.7679
1.56165
1.50817
1.48852
40.6535
40.6505
40.6587
42.6622
42.6688
42.6817
1.74605
1.71752
1.67014
40.6031
40.6065
40.6179
40.4604
40.4715
40.4781
40.4446
40.439
40.447
1.49031
1.42889
1.38479
40.355
40.3601
40.3769
42.7089
42.7191
42.7244
2.29419
2.24142
2.20003
2.67983
2.6591
2.62034
42.4163
42.4097
42.4138
1.85573
1.8274
1.77728
67.9579
67.9303
67.9096
42.9835
42.9987
43.0032
2.55131
2.50585
2.46375
42.0293
42.04
42.0395
1.64831
1.59818
1.57041
2.09292
2.06271
2.01447
68.2022
68.1863
68.171
44.8801
44.8713
44.874
42.3749
42.3689
42.3733
45.3198
45.3203
45.3405
3.00756
2.9764
2.94242
42.9802
42.9901
42.9994
18.1849
18.2023
18.1993
3.01324
2.98017
2.94396
2.45072
2.4135
2.36943
1.95396
1.90879
1.8716
44.4598
44.4658
44.4812
42.539
42.533
42.5392
42.3487
42.3593
42.3635
42.4624
42.4624
42.4723
2.82259
2.813
2.76516
2.59942
2.5577
2.53822
41.9145
41.907
41.9079
38.6906
38.6837
38.687
18.8673
18.7051
19.7965
2.45957
2.45195
2.40536
2.1401
2.09113
2.0746
42.5669
42.5767
42.5796
2.51344
2.49035
2.44443
54.1455
54.1668
54.1922
39.1966
39.2074
39.2066
2.53097
2.48408
2.45713
2.77778
2.76004
2.71367
32.502
32.1793
31.7152
3.5186
3.46852
3.42559
1.97029
1.94167
1.93089
1.96018
1.9314
1.92047
2.20003
2.17346
2.15481
40.5871
40.5941
40.5899
1.59198
1.57324
1.54379
41.9045
41.9058
41.897
2.00704
2.00101
1.96229
42.0402
42.0332
42.0333
1.56228
1.56726
1.53153
68.122
68.1281
68.1091
38.532
38.528
38.5374
40.4155
40.4287
40.4316
2.15872
2.13406
2.11293
50.6716
50.6669
50.6795
1.92856
1.89773
1.87097
40.3513
40.3622
40.3578
43.1592
43.154
43.1434
50.9174
50.9393
50.9299
39.1219
39.1128
39.1038
2.09258
2.06106
2.05278
43.2824
43.2766
43.2789
42.6735
42.6885
42.6897
1.68037
1.65027
1.61588
2.13047
2.12331
2.08282
1.68218
1.65065
1.64478
2.16923
2.14174
2.1038
42.5408
42.545
42.5587
2.1814
2.17012
2.13326
39.3444
39.3561
39.3441
1.74967
1.71436
1.67608
1.71538
1.67171
1.63156
76.2606
76.2314
76.2206
1.85669
1.8167
1.78369
1.99094
1.97136
1.94357
48.2914
48.2789
48.3031
39.1311
39.1291
39.1403
2.5075
2.47834
2.44673
67.8123
67.7935
67.766
2.20028
2.17244
2.1311
39.1194
39.1301
39.113
2.57973
2.57067
2.53116
2.14023
2.10277
2.06663
39.0974
39.1018
39.1168
40.2227
40.2344
40.233
2.01387
1.96759
1.93238
39.2655
39.2599
39.2811
2.34906
2.33095
2.29768
50.4963
50.5202
50.5206
42.2833
42.2838
42.2942
40.5755
40.586
40.5803
40.7548
40.7451
40.7343
2.21284
2.18
2.15609
2.10512
2.05953
2.02445
2.19284
2.15275
2.15429
2.46398
2.44176
2.40702
2.22489
2.18609
2.16709
53.7385
53.7691
53.7705
2.45286
2.43835
2.39729
44.6328
44.6434
44.6479
2.17157
2.12527
2.10957
68.4684
68.4629
68.4486
40.8872
40.8725
40.8596
2.25284
2.20978
2.16481
41.9083
41.9179
41.9183
53.7794
53.8045
53.8276
40.8093
40.8045
40.7933
3.06503
3.01325
2.99203
2.58037
2.54565
2.5148
53.4725
53.4805
53.5024
3.1859
3.17345
3.12675
2.79616
2.74917
2.72846
3.28699
3.24165
3.20596
2.82755
2.80192
2.76068
2.98738
2.97471
2.93108
2.59549
2.55356
2.54932
43.007
43.0208
43.0185
60.6982
60.7137
60.6859
3.28632
3.24966
3.2326
43.224
43.2337
43.2303
2.53596
2.48957
2.45857
43.0572
43.0555
43.0648
3.54589
3.5425
3.50513
3.06688
3.02618
3.01531
3.42565
3.41764
3.38028
39.2104
39.2035
39.1926
3.11204
3.07385
3.0352
42.596
42.5945
42.6126
2.42326
2.38259
2.37559
67.8861
67.8947
67.8725
3.54803
3.51557
3.48007
40.3544
40.3534
40.3693
2.3991
2.36156
2.326
2.84551
2.8179
2.77789
45.0224
45.0218
45.0359
42.9105
42.9262
42.9196
39.1045
39.1127
39.11
42.988
42.989
42.9938
2.73053
2.69101
2.65749
4.03869
4.00453
3.9676
42.0467
42.0365
42.0366
3.57602
3.53817
3.49507
4.05482
4.02664
3.99289
3.19165
3.15927
3.10764
43.1765
43.1579
43.1502
42.3695
42.3912
42.3962
40.2063
40.2024
40.2132
3.57366
3.5414
3.49912
38.6911
38.6969
38.6888
42.3605
42.3562
42.3714
42.9219
42.9332
42.9292
42.9844
42.9847
42.9917
43.2605
43.2535
43.2431
43.1615
43.1431
43.1381
3.14861
3.09973
3.07957
42.4421
42.4561
42.4517
42.2
42.2107
42.2263
3.38529
3.36431
3.32248
42.1831
42.1989
42.1989
40.3093
40.3028
40.3094
3.13623
3.09353
3.06854
42.8926
42.9062
42.9031
3.48303
3.46608
3.43082
3.29279
3.26124
3.23621
3.6143
3.57765
3.52789
3.46332
3.41382
3.38707
3.94349
3.91263
3.87386
3.88219
3.85742
3.83332
41.9302
41.9283
41.9366
40.2672
40.2734
40.2682
40.8876
40.8836
40.8715
42.8485
42.8617
42.8541
2.60789
2.58067
2.55893
42.0898
42.0976
42.1062
2.34167
2.31524
2.30967
40.3782
40.3712
40.3739
42.0577
42.0665
42.0787
40.3418
40.3464
40.3392
2.35614
2.32772
2.30135
42.6854
42.6932
42.7027
40.8756
40.8879
40.8927
2.57827
2.53939
2.50721
41.934
41.9424
41.9511
2.74277
2.72735
2.69287
41.7453
41.7578
41.7708
2.58902
2.56115
2.54055
2.82723
2.80567
2.76971
42.3337
42.3273
42.3388
42.5485
42.5545
42.5681
2.71163
2.69397
2.67723
40.4599
40.4534
40.4559
41.5486
41.5616
41.5754
2.86098
2.85026
2.82068
42.1846
42.1983
42.1968
40.4232
40.4295
40.4215
2.57214
2.54068
2.53115
2.6279
2.59366
2.55947
41.0392
41.0308
41.0201
41.5557
41.5554
41.5686
2.63153
2.60133
2.60387
42.2285
42.2253
42.2346
42.4034
42.3889
42.3909
40.556
40.5503
40.5529
41.4167
41.4298
41.4295
2.71072
2.69987
2.66771
2.75375
2.73422
2.69998
41.2963
41.3058
41.3124
2.48949
2.45147
2.42526
40.501
40.5091
40.5024
42.1215
42.1333
42.1296
67.9734
67.9319
67.9062
2.95176
2.90417
2.86736
42.4399
42.4327
42.4186
3.04984
3.00903
2.96135
41.1413
41.134
41.1249
41.3255
41.3131
41.3007
41.166
41.1761
41.1897
2.63339
2.60467
2.57797
40.5797
40.576
40.5798
41.4423
41.441
41.4506
42.2098
42.206
42.2161
42.3529
42.3567
42.3465
42.1129
42.1074
42.0984
41.4667
41.4571
41.4464
41.1812
41.1811
41.192
41.3082
41.3171
41.3146
2.92229
2.89054
2.8508
2.83941
2.79179
2.74806
3.30879
3.28066
3.24814
42.2794
42.2887
42.2848
42.1075
42.1175
42.1317
3.76711
3.74343
3.73954
3.09712
3.05998
3.03886
3.33503
3.3047
3.26071
3.34926
3.34842
3.31445
3.00561
2.95926
2.93387
3.25498
3.234
3.19436
38.81
38.8099
38.812
3.07087
3.02704
2.99544
40.784
40.7783
40.762
3.88061
3.85158
3.82763
41.6543
41.6444
41.645
3.33978
3.30961
3.27296
41.3237
41.3216
41.3304
44.6048
44.6021
44.614
3.22343
3.17874
3.13948
3.72212
3.69848
3.66909
3.69727
3.66953
3.65781
3.75877
3.73725
3.7071
4.21503
4.17947
4.1408
3.80117
3.78699
3.74695
3.50125
3.46279
3.43738
68.3318
68.3449
68.3391
41.0493
41.0416
41.05
4.1426
4.09794
4.05673
4.56714
4.5316
4.49124
41.2211
41.2296
41.223
40.9691
40.9694
40.9785
41.9759
41.9739
41.986
41.6468
41.6491
41.637
4.02049
3.98587
3.95415
41.9604
41.9713
41.9842
3.78113
3.7577
3.71957
40.9826
40.9838
40.9718
41.8038
41.7925
41.7814
42.1329
42.1247
42.1276
3.65783
3.66278
3.61428
40.8173
40.8067
40.7995
2.92364
2.89979
2.86371
42.2547
42.2451
42.2375
2.82938
2.79205
2.7675
41.7943
41.7932
41.8051
41.8034
41.8161
41.8255
4.47985
4.44503
4.40429
42.3354
42.3273
42.32
68.1426
68.1729
68.1573
4.08779
4.09212
4.04046
44.7926
44.795
44.8068
3.4956
3.45529
3.40251
40.8374
40.8486
40.8611
52.1057
52.156
52.1717
4.48994
4.45262
4.41095
42.0756
42.0918
42.0909
41.8728
41.8777
41.8912
4.54053
4.53365
4.48813
41.0233
41.0389
41.0415
4.04177
4.00711
3.96196
3.44279
3.3996
3.35362
42.294
42.2986
42.2923
41.911
41.9195
41.9306
42.3698
42.379
42.3821
40.7298
40.7179
40.7149
41.078
41.0739
41.0782
3.93419
3.89365
3.85396
4.27954
4.25762
4.21593
41.6477
41.6323
41.6184
40.8158
40.8128
40.797
4.03778
3.98897
3.95243
41.0297
41.0359
41.0469
41.9612
41.9714
41.9778
41.8686
41.8743
41.8928
4.56438
4.53496
4.49686
41.2224
41.228
41.2406
40.6569
40.6411
40.6348
41.972
41.984
41.9908
40.7084
40.7015
40.6863
41.3471
41.3429
41.328
40.5837
40.5677
40.5608
40.6205
40.6149
40.6003
41.2498
41.2474
41.2545
41.1979
41.1782
41.1721
4.13209
4.09439
4.07863
41.0579
41.0485
41.0488
4.76072
4.73269
4.70676
4.22413
4.18822
4.13866
40.5023
40.4889
40.4844
4.89351
4.87667
4.84733
41.3749
41.3814
41.396
4.51369
4.47894
4.44146
41.3986
41.3949
41.4073
4.34833
4.32807
4.28795
4.08132
4.02882
3.99636
4.35534
4.32837
4.27974
40.5585
40.5534
40.5395
4.09061
4.03903
4.00043
4.47175
4.44595
4.41489
42.0536
42.0418
42.0507
4.47092
4.44921
4.42493
41.7339
41.7324
41.7453
40.8271
40.8352
40.8299
2.73701
2.72712
2.70601
41.8763
41.884
41.8961
2.59794
2.5775
2.57162
41.0593
41.0457
41.0354
40.4477
40.434
40.43
41.0367
41.0232
41.017
44.1517
44.1671
44.182
42.2814
42.2781
42.2966
3.34503
3.31175
3.28614
3.36858
3.32707
3.30241
3.58494
3.56053
3.52895
3.54634
3.53444
3.50283
3.31873
3.28116
3.2619
41.1269
41.1211
41.1117
40.4838
40.4746
40.4819
3.54036
3.51476
3.47786
3.36601
3.33188
3.31414
2.86426
2.84035
2.80295
40.64
40.6314
40.623
64.6369
64.6376
64.6555
22.4299
22.4424
22.4401
3.35984
3.32485
3.30761
64.2807
64.286
64.3049
23.5213
23.5315
23.5367
64.4296
64.4306
64.4455
2.9646
2.92151
2.88795
3.79235
3.78104
3.75196
68.2703
68.2634
68.2755
2.96656
2.93029
2.89164
3.73386
3.70903
3.71735
42.6488
42.6479
42.6615
42.4408
42.4252
42.433
64.2787
64.3048
64.3044
3.50238
3.4868
3.4575
64.2742
64.2733
64.294
3.41974
3.39983
3.36024
3.26435
3.23115
3.214
3.20963
3.17284
3.14957
3.62267
3.58928
3.56807
41.0639
41.0511
41.042
41.8817
41.8787
41.8908
40.6078
40.5961
40.5887
40.6761
40.6712
40.6761
3.37291
3.35201
3.32412
40.8086
40.791
40.7835
3.49609
3.48006
3.45339
42.7258
42.7319
42.7385
68.6272
68.638
68.6323
3.42599
3.39816
3.3765
3.61813
3.59577
3.56357
64.0188
64.0472
64.0438
68.405
68.406
68.4243
60.0378
60.0368
60.0781
39.1389
39.1349
39.1442
4.00261
3.97417
3.9433
40.8854
40.8767
40.8639
68.125
68.161
68.1491
40.0911
40.1059
40.1035
3.37688
3.3559
3.33508
3.80952
3.77292
3.73426
4.31189
4.28532
4.26341
42.6471
42.66
42.6767
3.99909
3.97228
3.95869
51.8095
51.8467
51.8954
44.1034
44.1089
44.1319
23.3361
23.3348
23.3676
68.3455
68.3408
68.3515
64.3799
64.4235
64.4233
23.4746
23.4831
23.4722
3.73468
3.74039
3.70945
68.6154
68.612
68.6224
4.00507
3.98803
3.99412
4.41467
4.38116
4.36107
4.70532
4.68636
4.65932
4.0845
4.06418
4.01949
4.0012
3.98722
3.94306
4.53334
4.50227
4.47312
4.84124
4.81731
4.78229
4.44733
4.40602
4.37377
68.7712
68.7632
68.7707
3.99709
3.96699
3.94527
4.76735
4.72796
4.68638
42.4228
42.426
42.4091
4.58664
4.57683
4.53764
4.29901
4.26487
4.25883
40.8162
40.7994
40.7981
68.1938
68.1722
68.1363
23.9684
23.962
23.959
5.1395
5.10935
5.07293
4.30896
4.28178
4.2508
51.8525
51.8734
51.9073
5.12449
5.08881
5.04609
60.2921
60.3157
60.3234
63.7163
63.7096
63.7217
60.0737
60.0719
60.1146
5.46024
5.43908
5.41227
41.9164
41.9323
41.9311
44.3743
44.3931
44.3899
40.3006
40.2872
40.2741
42.0302
42.0376
42.0538
4.53838
4.50456
4.48193
4.15025
4.12256
4.12342
43.4319
43.1794
42.95
42.0548
42.0521
42.0623
4.94836
4.91134
4.87938
4.55341
4.52162
4.51965
4.86506
4.83775
4.81076
4.95933
4.9315
4.8966
5.28325
5.25734
5.22391
5.35296
5.35508
5.31588
4.99957
4.96155
4.9525
42.7322
42.7443
42.7493
39.7845
39.781
39.7939
40.9383
40.9333
40.9259
39.0887
39.0883
38.6577
49.556
49.5426
49.5336
4.91877
4.87439
4.84274
5.14261
5.13839
5.09786
51.4768
51.5096
51.5466
39.0351
39.0447
39.0431
5.26318
5.23442
5.20002
5.62854
5.60621
5.58231
5.1478
5.13267
5.09855
68.733
68.7355
68.728
59.5005
59.5611
59.578
68.8636
68.8549
68.8563
63.9204
63.9442
63.9361
42.6344
42.6356
42.6545
5.38992
5.3546
5.32357
4.95097
4.91608
4.87879
5.36714
5.32405
5.28951
5.56932
5.55172
5.51097
5.72373
5.71419
5.67851
40.9201
40.9082
40.895
53.4904
53.5123
53.5335
41.9793
41.9764
41.9843
40.8491
40.8306
40.8229
5.20387
5.19227
5.1626
4.96798
4.92738
4.9096
40.9579
40.9517
40.9397
5.51611
5.49082
5.46382
5.05943
5.02401
4.97818
42.1939
42.2005
42.2189
4.96065
4.93828
4.89614
5.45755
5.43324
5.41918
5.68877
5.66602
5.64922
67.2242
67.2264
67.2466
5.69423
5.66948
5.63885
67.1408
67.1528
67.1627
4.14086
4.10128
4.07573
4.34564
4.32998
4.29936
4.13754
4.101
4.07876
4.32317
4.30043
4.26593
42.7262
42.7381
42.7417
67.3628
67.3473
67.339
4.08359
4.05069
4.03163
67.4389
67.4518
67.4592
3.58883
3.57373
3.54383
4.24805
4.22876
4.19389
67.3265
67.3287
67.3431
67.1075
67.1253
67.1396
42.1132
42.1243
42.1497
4.01633
3.98535
3.9598
42.2793
42.3029
42.3137
68.3282
68.3311
68.3445
42.1615
42.1638
42.1824
4.16441
4.1241
4.10421
67.0503
67.0739
67.0853
4.34638
4.32959
4.30264
67.2818
67.2908
67.3158
42.8239
42.832
42.8503
4.27699
4.25663
4.22873
67.2921
67.3111
67.3118
3.91361
3.88231
3.87401
4.24043
4.24593
4.21698
67.234
67.2386
67.2629
64.5805
64.5752
64.5827
66.9325
66.9705
66.9846
67.2114
67.2222
67.2376
42.5707
42.59
42.6105
42.6032
42.6221
42.6364
3.8599
3.83274
3.8261
51.5055
51.5292
51.5667
42.3525
42.371
42.3922
67.0643
67.0639
67.0789
42.3645
42.3608
42.3767
66.7496
66.7421
66.7648
44.5578
44.564
44.5743
42.183
42.178
42.192
4.06426
4.05832
4.03351
3.90741
3.87965
3.8484
4.34237
4.30986
4.27761
66.9781
67.0086
67.0357
66.9922
67.0237
67.0257
67.1086
67.1149
67.1344
4.22959
4.2036
4.19656
4.55014
4.51939
4.50268
4.62749
4.60743
4.58013
67.246
67.2635
67.2674
4.32672
4.30097
4.27702
66.6955
66.7009
66.7445
64.4147
64.4126
64.4265
66.8507
66.8798
66.8909
4.20411
4.17249
4.14122
4.5392
4.50972
4.47947
4.89945
4.86648
4.83438
4.58059
4.55595
4.53536
66.3577
66.401
66.4134
66.828
66.8093
66.7889
3.8073
3.76978
3.7371
67.2131
67.2334
67.2417
67.343
67.355
67.3606
39.152
39.1469
39.1581
67.1955
67.2049
67.2176
53.5073
53.5041
53.5328
4.87871
4.84462
4.81333
4.51842
4.50288
4.47913
67.2505
67.2692
67.2786
4.02276
3.98755
3.94791
67.1144
67.1191
67.1403
5.33229
5.31812
5.29169
66.0346
66.0322
66.0683
4.51463
4.48223
4.44847
42.8092
42.8201
42.8336
5.15278
5.12844
5.10606
42.5663
42.5791
42.5954
66.667
66.6823
66.6626
4.50113
4.46354
4.46171
4.9556
4.91994
4.89243
5.38869
5.36844
5.33506
64.4723
64.4956
64.4911
67.2894
67.2957
67.3082
5.30827
5.27351
5.23776
4.93835
4.89734
4.85788
42.382
42.4075
42.4147
66.2466
66.2714
66.2889
5.66523
5.64692
5.61576
42.3011
42.3071
42.3227
42.3743
42.3698
42.3813
65.6352
65.6435
65.6738
5.62369
5.59692
5.56782
66.1102
66.1423
66.1297
5.15426
5.10686
5.07397
67.1025
67.1217
67.1307
5.84559
5.82243
5.79758
42.2574
42.2804
42.2863
64.1523
64.1882
64.2148
5.40629
5.38585
5.35743
4.63533
4.60845
4.57468
5.78369
5.75655
5.72507
6.12242
6.10459
6.08151
5.24792
5.20538
5.17357
42.1485
42.1545
42.1737
42.2383
42.2569
42.2662
64.0744
64.0962
64.1415
5.55663
5.54018
5.50988
5.39166
5.36033
5.34098
68.4768
68.4554
68.4363
5.7629
5.74136
5.75001
42.3833
42.3799
42.3832
5.59355
5.57468
5.5352
5.99037
5.99325
6.01947
42.4577
42.4698
42.4784
5.90929
5.8911
5.86379
5.70399
5.68346
5.66302
67.028
67.0379
67.0566
6.15792
6.15554
6.12559
42.4103
42.4202
42.4365
5.71521
5.73484
5.75014
64.8921
64.8814
64.8954
65.1647
65.1826
65.2118
53.2059
53.236
53.2567
65.5787
65.608
65.6056
65.1332
65.1553
65.197
67.138
67.1512
67.1555
6.31828
6.28812
6.25928
6.01075
6.02526
6.04912
5.6639
5.67674
5.70512
53.1573
53.175
53.2082
42.7725
42.7796
42.795
42.5886
42.5844
42.5967
6.4098
6.40767
6.38269
64.8362
64.846
64.8648
5.90143
5.89072
5.90206
42.5867
42.5954
42.6182
42.7968
42.8186
42.8201
5.69044
5.66142
5.64129
6.07368
6.04993
6.03915
42.632
42.6572
42.6705
6.11336
6.09151
6.09099
64.8236
64.8322
64.8909
64.5307
64.5873
64.5979
66.8739
66.8951
66.9043
5.81969
5.80566
5.77896
6.26066
6.23145
6.21565
68.4357
68.4431
68.4243
5.9262
5.90288
5.87164
42.5969
42.6159
42.6296
68.7965
68.7865
68.788
42.4749
42.4725
42.4919
68.8124
68.8188
68.8098
5.9001
5.86775
5.8358
63.8827
63.9236
63.9269
64.3602
64.3795
64.4492
66.7725
66.7792
66.7955
42.5673
42.5761
42.5915
6.26076
6.23463
6.20225
6.18559
6.15888
6.13463
6.16663
6.14215
6.11974
6.40404
6.38137
6.34508
68.9733
68.9654
68.9692
66.8422
66.8552
66.8689
6.27959
6.26472
6.24621
6.66735
6.63846
6.60753
63.688
63.7323
63.7221
63.3049
63.32
63.3367
66.6575
66.6683
66.6872
66.7079
66.7211
66.737
63.1418
63.1555
63.2315
63.4675
63.4807
63.5181
62.6237
62.6905
62.6935
4.74659
4.71839
4.70544
62.351
62.3532
62.4443
64.7235
64.7128
64.7172
68.7802
68.7946
68.7743
66.4901
66.5053
66.5249
42.8369
42.8465
42.8438
64.1731
64.2015
64.1821
4.69299
4.66387
4.65074
4.76262
4.73667
4.70695
64.8804
64.8574
64.8494
69.0606
69.053
69.057
66.787
66.8078
66.8044
4.91513
4.88057
4.8492
5.18833
5.15618
5.1201
52.8666
52.8856
52.918
5.07612
5.06244
5.02963
4.85145
4.81625
4.79205
5.09807
5.07578
5.0436
5.05469
5.03011
5.00935
4.90256
4.89219
4.85846
5.39528
5.3599
5.33116
66.5252
66.5405
66.5613
63.4868
63.5382
63.6007
63.9788
63.9652
63.943
50.9968
51.026
51.0155
63.3165
63.3904
63.3935
63.0985
63.1309
63.1574
5.04327
5.04746
5.00511
64.761
64.7482
64.7221
5.35073
5.32645
5.33828
68.9269
68.9325
68.9234
5.07078
5.04318
5.01498
5.04099
5.04593
5.01424
4.63242
4.60254
4.61344
4.49024
4.45537
4.42796
4.83388
4.80913
4.77984
5.48436
5.46261
5.43739
5.19188
5.15549
5.14705
69.137
69.1264
69.1247
64.4349
64.3793
64.3722
5.13299
5.10659
5.07047
66.2834
66.3034
66.3185
4.78875
4.75957
4.73339
4.95825
4.92676
4.88832
4.64926
4.63425
4.5968
62.8809
62.8924
62.957
64.1771
64.1302
64.115
62.051
62.1325
62.1342
5.40566
5.37389
5.33903
5.03237
4.99939
4.97468
64.3316
64.289
64.2759
64.05
64.0346
64.0378
5.42549
5.42602
5.38575
66.0872
66.0859
66.1087
59.1446
59.1541
59.2036
5.35143
5.31287
5.28416
66.1198
66.1385
66.1571
58.5948
58.6414
58.6621
5.72755
5.69915
5.66904
5.30045
5.29902
5.2644
4.97117
4.93873
4.94037
4.9248
4.89038
4.85671
5.30349
5.27054
5.23851
5.6826
5.65027
5.61783
5.2257
5.19362
5.16754
44.6499
44.6595
44.6673
39.1019
39.0999
39.1069
5.88586
5.84938
5.8285
69.0027
69.0109
69.001
4.9535
4.91662
4.87952
5.4439
5.40761
5.36673
62.9942
63.0147
63.0445
5.42265
5.37786
5.33739
5.87315
5.83452
5.79776
6.11705
6.10777
6.07932
5.90022
5.86788
5.85447
69.1243
69.1264
69.1061
5.95829
5.94804
5.91304
64.3144
64.259
64.2274
6.0191
5.99494
5.96704
6.37481
6.34103
6.30809
69.3644
69.3546
69.3602
69.0916
69.0807
69.0717
61.3728
61.3867
61.4663
6.01434
5.9878
5.95508
63.0964
63.0931
63.1097
6.26282
6.23331
6.21516
6.49093
6.48583
6.45276
58.185
58.1951
58.2459
39.0344
39.0413
39.0375
5.87384
5.84021
5.8112
64.3588
64.3123
64.3169
64.7944
64.7862
64.7541
6.39927
6.36933
6.34034
65.4457
65.4645
65.4871
6.1731
6.14838
6.11774
65.6699
65.7009
65.7031
63.0302
63.0695
63.0864
6.87407
6.84789
6.83123
6.7621
6.73244
6.70542
26.761
26.7733
26.7666
65.4554
65.4698
65.4913
6.02453
5.99437
5.96707
39.1477
39.1429
39.1477
65.1687
65.128
65.0994
65.1843
65.1623
65.1593
6.89297
6.89455
6.86051
69.1434
69.1362
69.1399
65.2274
65.2372
65.2616
6.33543
6.30513
6.27617
6.31875
6.29148
6.29693
6.57645
6.55161
6.54355
64.6738
64.6733
64.6526
39.1135
39.1209
39.1127
50.5482
50.5764
50.5768
62.7889
62.789
62.8039
39.1686
38.9508
38.6956
6.6301
6.60811
6.57944
7.03209
7.00549
6.97376
7.18133
7.18491
7.14885
6.64852
6.62763
6.62489
62.0678
62.0901
62.1437
44.3943
44.3916
44.4046
6.91547
6.89749
6.86913
6.77597
6.74678
6.73024
65.4456
65.4195
65.4051
62.8169
62.8131
62.8349
64.1949
64.2136
64.2335
6.6965
6.67299
6.64706
65.4201
65.3944
65.3998
6.93543
6.92928
6.90752
65.1255
65.1318
65.1547
6.24111
6.24676
6.28004
62.0154
62.0488
62.0772
64.4746
64.4893
64.4836
63.6782
63.6734
63.6894
52.8467
52.8741
52.8929
64.1396
64.0664
64.0409
61.4056
61.3845
61.4106
44.0049
44.0143
44.0329
6.49816
6.51708
6.52029
69.6093
69.6348
69.622
69.3022
69.3173
69.3069
6.52994
6.52487
6.55105
64.0575
64.0741
64.0957
6.68518
6.66843
6.6668
62.479
62.5246
62.5369
65.2354
65.2471
65.2649
64.5367
64.525
64.5407
6.88897
6.86129
6.84593
6.75101
6.72221
6.69442
7.03631
7.01175
6.98074
35.3609
35.3353
35.2883
69.2024
69.1908
69.1785
6.96179
6.93301
6.912
6.92928
6.90195
6.90751
61.4449
61.4768
61.556
61.6958
61.7677
61.7852
6.95677
6.93667
6.90799
69.1445
69.1517
69.1407
6.35473
6.35404
6.32609
6.83282
6.79252
6.76861
69.63
69.6274
69.6415
7.09776
7.07988
7.04882
64.3165
64.3379
64.3268
46.195
46.1652
46.0177
64.3949
64.3601
64.3232
53.2042
53.241
53.2411
69.2807
69.2768
69.2815
64.7705
64.7933
64.7832
57.843
57.8684
57.8693
5.68145
5.64754
5.62205
5.59484
5.55825
5.54836
5.8713
5.86413
5.83274
5.64532
5.61601
5.58073
5.92792
5.89014
5.8576
69.8618
69.8508
69.8639
62.1709
62.156
62.1609
65.0007
64.9952
65.0094
5.83254
5.79356
5.75886
5.45084
5.42212
5.38932
64.7212
64.6779
64.6296
64.7134
64.7417
64.7387
65.6718
65.6511
65.6322
44.2329
44.2479
44.2432
5.68772
5.66427
5.63487
62.2782
62.3488
62.3486
62.4419
62.4436
62.4745
38.9656
38.969
38.9817
5.88922
5.86787
5.83654
61.5415
61.5623
61.6223
65.6018
65.579
65.5815
57.646
57.6444
57.6625
5.82337
5.80201
5.77516
5.59147
5.56056
5.53581
61.3335
61.3124
61.3683
69.7531
69.7724
69.7685
5.42073
5.39469
5.39402
5.77059
5.77297
5.74404
5.6976
5.6788
5.64692
5.36725
5.33387
5.30492
61.1364
61.1231
61.1523
61.9188
61.9454
61.897
40.4019
40.4088
40.396
5.75396
5.71803
5.70038
5.63888
5.60965
5.58167
57.5907
57.6121
57.6372
6.01765
5.97616
5.93935
6.10938
6.07922
6.04248
6.04476
6.01217
5.97128
5.93815
5.8985
5.86869
40.4461
40.4285
40.4132
5.83468
5.80929
5.81594
64.5239
64.5323
64.5505
50.736
50.7336
50.747
62.2968
62.3397
62.3949
64.5536
64.5632
64.5847
64.4075
64.3871
64.3499
6.30166
6.27029
6.23431
50.2742
50.2888
50.3115
6.243
6.20586
6.17235
6.62306
6.59103
6.55861
5.98911
5.97435
5.94765
5.77347
5.7387
5.73158
5.7323
5.69731
5.66929
6.33046
6.30337
6.27741
38.7708
38.7862
38.7776
57.4421
57.4832
57.4816
65.7969
65.7756
65.7548
64.2611
64.2509
64.2652
50.2643
50.2837
50.3094
5.85262
5.8227
5.78769
6.27149
6.24271
6.21364
6.03717
5.99992
5.95691
6.55519
6.51584
6.48394
6.2701
6.24215
6.21223
6.64212
6.61755
6.58075
6.82376
6.80585
6.77489
6.64102
6.60331
6.57647
65.7113
65.6836
65.6841
57.434
57.4507
57.4804
6.90501
6.8834
6.85041
6.51821
6.48394
6.46118
68.2955
68.2561
68.2317
6.79713
6.76396
6.73702
6.67498