/*--------------------------------*- C++ -*----------------------------------*\
| =========                 |                                                 |
| \\      /  F ield         | OpenFOAM: The Open Source CFD Toolbox           |
|  \\    /   O peration     | Version:  v2012                                 |
|   \\  /    A nd           | Website:  www.openfoam.com                      |
|    \\/     M anipulation  |                                                 |
\*---------------------------------------------------------------------------*/
FoamFile
{
    version     2.0;
    format      ascii;
    class       volScalarField;
    location    "0";
    object      Plift0;
}
// * * * * * * * * * * * * * * * * * * * * * * * * * * * * * * * * * * * * * //

dimensions      [0 2 -2 0 0 0 0];


internalField   nonuniform List<scalar> 
228296
(
57.6269
57.6272
57.6546
38.6505
38.6563
38.65
36.6118
36.6132
36.6185
2.61388
2.56826
2.4847
58.0378
58.0529
58.0465
46.5118
46.5086
46.5279
57.768
57.767
57.7918
56.477
56.4748
56.445
56.4695
56.4569
56.4338
38.4526
38.4607
38.4693
38.5464
38.5493
38.5537
57.6592
57.6568
57.6643
57.5922
57.6
57.5918
57.7069
57.7
57.7038
57.9511
57.9497
57.9686
52.0666
52.0651
52.0803
1.85283
1.59023
1.81811
57.6598
57.6647
57.656
56.0773
56.0622
56.0845
38.3325
38.3377
38.3475
36.7268
36.7052
36.7011
2.40802
2.37587
2.2933
57.3946
57.3963
57.4103
55.8035
55.8484
55.8594
45.4194
45.4106
45.4278
2.02961
1.73669
1.95176
38.5072
38.5056
38.5119
57.6185
57.6114
57.6193
57.5154
57.5284
57.5299
57.4795
57.4742
57.4874
38.778
38.7835
38.7807
56.0388
56.0726
56.0758
55.5628
55.6018
55.606
35.9258
35.9278
35.9242
45.3426
45.3294
45.351
56.7923
56.7738
56.7659
2.48142
2.5549
2.55962
45.3914
45.3856
45.3887
1.82829
1.55928
1.78661
38.3545
38.3507
38.3599
41.0653
41.0653
41.0779
57.7389
57.7144
57.7016
40.0906
40.1003
40.0963
57.3952
57.3913
57.4026
2.82519
2.90032
2.88906
38.4853
38.4889
38.4944
2.14401
2.17639
1.98632
57.5499
57.5596
57.5571
58.1204
58.1114
58.0916
14.4946
14.4813
14.4647
58.0443
58.0227
58.0171
57.3433
57.3589
57.3551
45.1721
45.1693
45.193
14.8861
14.8735
14.8585
1.96865
1.99768
1.82926
37.0571
37.071
37.0696
2.73511
2.73251
2.81254
56.8211
56.8161
56.7926
38.8316
38.8259
38.8213
45.1572
45.1856
45.1861
57.1121
57.0911
57.0817
54.8603
54.8573
54.8793
57.8134
57.8075
57.8136
57.7709
57.7624
57.7582
58.1922
58.1895
58.1814
51.9391
51.9587
51.9453
55.289
55.288
55.3388
57.2648
57.2816
57.2784
54.7665
54.7587
54.809
58.1932
58.1785
58.1655
57.2961
57.2962
57.3063
38.261
38.273
38.2735
38.2825
38.2819
38.2913
58.4473
58.4267
58.4024
1.82315
1.53426
1.77802
2.31555
2.27558
2.28634
2.04324
1.79842
2.04882
2.28175
2.34068
2.36796
1.62799
1.37861
1.58557
55.1769
55.1377
55.1449
55.217
55.2081
55.172
57.8084
57.8176
57.819
2.497
2.55094
2.57064
57.7284
57.7321
57.7439
2.0449
2.08126
1.87763
18.4956
18.4908
18.5067
26.3813
26.3798
26.397
51.3507
51.3604
51.4054
1.61806
1.8334
1.71661
58.5221
58.5178
58.5021
1.72437
1.4329
1.63301
54.3919
54.4699
54.4734
38.1824
38.1913
38.1909
36.3759
36.3797
36.3903
1.83903
1.89757
1.70509
26.1019
26.1063
26.127
35.9403
35.9401
35.9325
57.5942
57.571
57.5478
36.4663
36.4692
36.4756
1.93037
1.97981
1.78228
58.1139
58.1033
58.1163
38.5722
38.5695
38.5728
19.2108
19.2024
19.204
57.4759
57.4529
57.4432
57.5058
57.5139
57.5086
58.003
58.0153
58.0041
57.149
57.1642
57.1776
55.4199
55.4174
55.4123
25.1678
25.1848
25.1799
57.8023
57.8146
57.8187
58.2188
58.2091
58.2091
22.3375
22.3296
22.3393
3.29895
3.34145
3.29057
1.75802
1.83847
1.62665
37.9843
37.9802
37.9879
57.722
57.7243
57.7387
1.74928
1.46816
1.68503
38.4576
38.4539
38.4508
44.9055
44.9016
44.9229
54.9368
54.9755
55.0082
2.29559
2.25585
2.16898
54.7028
54.6738
54.7274
47.2402
47.2612
47.256
38.4337
38.437
38.4352
55.0517
55.0887
55.0965
57.9585
57.9477
57.9413
57.7806
57.7722
57.788
2.23739
2.216
2.24777
1.84299
1.56664
1.81045
56.9501
56.9576
56.9743
2.46302
2.41431
2.42207
57.9871
58.0169
58.0085
20.719
20.7341
20.7278
54.806
54.7996
54.8405
56.9984
56.992
57.0087
38.0027
38.0009
38.0076
1.98351
1.7008
1.94688
2.54983
2.49556
2.49574
37.9358
37.9427
37.9401
54.2608
54.3341
54.3392
56.7755
56.7967
56.7991
58.1836
58.1872
58.1729
1.83122
1.56528
1.78846
2.46859
2.43772
2.45735
21.6415
21.6354
21.6386
2.11767
1.82929
2.06377
2.61165
2.5698
2.57837
46.9412
46.951
46.9716
56.7393
56.7397
56.7589
57.7185
57.7183
57.7327
56.4771
56.5068
56.5187
1.78924
1.52542
1.73723
53.7591
53.7854
53.8705
46.9099
46.9218
46.9143
21.2616
21.2537
21.248
2.49574
2.4515
2.46964
57.8012
57.7852
57.7865
57.796
57.7979
57.7883
37.939
37.9436
37.9387
1.82979
1.5526
1.78017
46.5898
46.5866
46.6067
57.5928
57.5858
57.5923
56.3757
56.3694
56.3941
1.88026
1.62481
1.82744
2.70752
2.64961
2.64944
2.4843
2.19037
2.43346
3.70532
3.64593
3.57188
2.55917
2.51618
2.43196
57.575
57.5748
57.5842
1.79963
1.99881
1.88709
54.6438
54.6311
54.6568
2.40884
2.12704
2.33685
3.01895
2.97035
2.98021
54.0962
54.0768
54.1344
2.65625
2.6013
2.62153
3.79195
3.70433
3.64276
57.6739
57.6836
57.6821
1.94486
2.11849
1.95853
2.89669
2.84018
2.85428
4.15389
4.11953
4.03612
56.4013
56.3974
56.415
56.1846
56.2084
56.2124
54.547
54.5746
54.5624
3.6321
3.54387
3.47755
2.6999
2.62783
2.63946
53.8971
53.9378
53.9726
11.4065
11.4067
11.3723
10.7343
10.7629
10.7826
44.9172
44.9404
44.9416
26.4589
26.4548
26.4548
3.87638
3.79614
3.73994
2.1041
1.81508
2.02832
53.6587
53.7188
53.6985
57.9729
57.964
57.9661
56.1529
56.1516
56.1707
44.6163
44.6478
44.6468
4.53972
4.49649
4.4136
2.90942
2.83831
2.83392
2.68165
2.58925
2.57441
56.0171
56.032
56.0287
38.2501
38.2461
38.2406
54.7239
54.7291
54.7472
47.2196
47.2165
47.2299
53.4876
53.5095
53.5776
4.21846
4.14641
4.09316
4.72445
4.67908
4.59099
56.0382
56.0359
56.0504
3.88679
3.83251
3.75434
55.6117
55.6114
55.6326
57.7404
57.7472
57.7461
55.8659
55.8841
55.8801
3.66621
3.687
3.61775
57.6478
57.6477
57.6594
2.57873
2.61484
2.61578
1.75324
1.48152
1.6933
55.7272
55.7566
55.7542
54.4454
54.4541
54.4838
2.3677
2.32343
2.24998
54.2678
54.3205
54.2994
53.7177
53.7071
53.7343
3.3473
3.2684
3.2617
3.41517
3.33767
3.34645
4.19859
4.18525
4.10478
57.9961
57.9922
58.0026
4.06984
3.97885
3.97318
55.9166
55.9137
55.927
4.20022
4.16752
4.18991
3.61563
3.5468
3.50436
3.98871
3.95684
3.88412
55.3935
55.4032
55.4275
54.3851
54.4095
54.3851
3.49195
3.40467
3.34582
54.1888
54.224
54.1953
57.9124
57.9223
57.9173
53.765
53.7746
53.765
3.8711
3.84797
3.77611
3.57831
3.52453
3.48417
57.6553
57.6714
57.6756
3.93806
3.89992
3.82186
3.46276
3.37663
3.32338
55.5175
55.5052
55.5004
2.35275
2.30789
2.22649
37.95
37.9569
37.955
54.597
54.5903
54.6037
54.4336
54.4511
54.4207
53.7828
53.8121
53.8233
3.77488
3.73924
3.66983
54.9899
54.986
55.0094
54.9591
54.9681
54.9902
52.114
52.1
52.1094
57.7041
57.6978
57.7064
57.9851
57.984
57.9726
2.51522
2.45484
2.43037
54.7591
54.7902
54.7907
35.6603
35.6645
35.6675
41.7306
41.766
41.7381
57.6334
57.6362
57.6499
35.5027
35.5055
35.5187
3.52472
3.44432
3.38641
58.2927
58.2829
58.278
3.73579
3.71358
3.6504
54.7789
54.7742
54.7885
37.9557
37.9552
37.9628
54.4197
54.4644
54.4737
54.4675
54.501
54.496
3.46922
3.39588
3.31319
34.5643
34.5582
34.5487
4.14646
4.14717
4.07388
3.43343
3.36111
3.29192
4.15422
4.11
4.05189
57.7758
57.7835
57.7975
3.30442
3.22452
3.18523
3.84861
3.81284
3.73787
38.1692
38.1774
38.1777
57.9637
57.9643
57.9482
3.48722
3.41658
3.3671
38.472
38.4695
38.4646
38.4957
38.4878
38.4858
4.13045
4.07001
3.99659
57.772
57.7668
57.7562
3.8694
3.8446
3.77012
38.6404
38.6317
38.6241
38.6426
38.6399
38.6319
38.5546
38.5668
38.5708
38.4274
38.4274
38.4409
3.49536
3.4341
3.41089
4.12762
4.11579
4.03575
3.4693
3.39152
3.35353
37.7965
37.7941
37.7992
3.90992
3.8722
3.78355
4.11742
4.06053
3.96688
38.541
38.5406
38.5522
38.6512
38.6449
38.6516
57.8778
57.8665
57.8669
38.6734
38.6589
38.6481
3.43107
3.34316
3.28533
57.5937
57.5838
57.6046
3.86521
3.76899
3.68326
38.748
38.7445
38.7516
5.24078
5.22242
5.16093
4.61604
4.54651
4.48965
4.62655
4.56259
4.4798
38.6378
38.6369
38.6282
4.85937
4.84327
4.76938
36.9859
36.9833
36.9787
5.6139
5.54789
5.49538
4.20902
4.12326
4.09349
4.50701
4.48586
4.39047
4.6119
4.54203
4.45706
5.85445
5.83459
5.76503
38.6165
38.6148
38.6174
3.8942
3.81992
3.79556
4.29384
4.26199
4.18118
38.3364
38.3362
38.3331
5.21877
5.14122
5.09767
37.0104
37.016
37.0146
4.33823
4.29468
4.20466
36.9574
36.962
36.9574
5.57606
5.54132
5.46371
38.3724
38.3709
38.3754
3.9377
3.84719
3.80885
36.9914
36.9902
36.9954
38.3045
38.3091
38.3178
4.28054
4.23574
4.15029
36.9574
36.959
36.9666
36.8693
36.8765
36.8803
36.8635
36.8597
36.8648
3.84801
3.74237
3.66589
36.7981
36.8012
36.8138
38.336
38.3419
38.3443
5.1833
5.09803
5.03248
5.77209
5.7362
5.67259
38.144
38.1382
38.138
4.41251
4.36744
4.28481
58.1824
58.1586
58.1418
38.5035
38.5138
38.5182
5.56453
5.49157
5.4254
37.8724
37.8796
37.8792
4.06677
3.98164
3.92841
4.80215
4.75176
4.67448
58.3613
58.3465
58.3338
39.7348
39.7311
39.7331
38.0911
38.0874
38.0905
40.0149
40.0139
40.0277
6.24323
6.19508
6.14138
38.4938
38.4997
38.5057
22.1682
22.1829
22.1811
6.26222
6.21173
6.15368
5.38456
5.32865
5.26337
4.6122
4.54076
4.47841
39.4457
39.4481
39.4589
38.1955
38.192
38.1963
38.0716
38.0787
38.0813
38.1445
38.1441
38.1507
5.95655
5.94171
5.86721
5.61075
5.54153
5.51168
37.796
37.7911
37.7915
35.7487
35.7473
35.7496
16.3657
16.2051
17.3101
5.40577
5.39467
5.32595
4.93334
4.86274
4.83658
38.2409
38.2456
38.2483
5.48939
5.45403
5.38304
46.6867
46.7043
46.7249
36.0807
36.088
36.0863
5.50285
5.42549
5.38286
5.88519
5.85956
5.78581
28.6063
28.2971
27.8424
6.98487
6.91318
6.85055
4.72399
4.67274
4.65453
4.73813
4.68503
4.66406
5.12941
5.09081
5.05421
36.9544
36.9593
36.957
4.11786
4.08253
4.02803
37.7891
37.7897
37.7839
4.8217
4.81532
4.75168
37.8765
37.8727
37.873
4.06206
4.06975
4.00417
58.2917
58.297
58.2806
35.6657
35.6621
35.667
36.846
36.8554
36.8564
5.04144
5.00447
4.96717
43.9249
43.9203
43.9292
4.65046
4.5977
4.55106
36.8059
36.8141
36.8114
38.6044
38.599
38.5924
44.127
44.1451
44.136
36.0282
36.0227
36.0178
4.95603
4.90152
4.8846
38.6795
38.678
38.6784
38.3164
38.326
38.3257
4.28057
4.22995
4.17167
5.01649
5.00955
4.94558
4.27269
4.22038
4.20941
5.03271
4.9877
4.92626
38.2324
38.2353
38.2442
5.04637
5.03374
4.97707
36.1708
36.1772
36.166
4.33814
4.2775
4.21045
4.29026
4.21824
4.14687
65.4586
65.4328
65.4227
4.5572
4.49184
4.43977
4.78345
4.75252
4.70168
41.9607
41.9483
41.9715
36.0409
36.0369
36.0437
5.56231
5.51716
5.46815
58.0555
58.0407
58.016
5.09635
5.0541
4.98631
36.0279
36.0374
36.0265
5.65571
5.64417
5.58239
4.99172
4.93312
4.87426
36.0191
36.0213
36.0322
36.7265
36.7341
36.7321
4.78553
4.71013
4.65345
36.1109
36.1054
36.1202
5.33002
5.30003
5.24297
43.803
43.8223
43.8224
38.0303
38.0291
38.0354
36.9444
36.9511
36.9456
37.0578
37.052
37.0434
5.10934
5.05373
5.0135
4.91651
4.84342
4.78835
5.0589
4.99489
4.99589
5.50931
5.4788
5.42137
5.12693
5.06261
5.03036
46.352
46.3782
46.3796
5.47563
5.45478
5.38779
39.5599
39.5669
39.5684
5.02089
4.94261
4.91524
58.5863
58.581
58.5689
37.1324
37.1216
37.1141
5.14163
5.0731
4.99996
37.7924
37.7991
37.7998
46.3861
46.4068
46.4255
37.094
37.0909
37.0844
6.32363
6.24516
6.21489
5.66264
5.60556
5.55561
46.1347
46.1393
46.1576
6.50619
6.48948
6.41888
5.92902
5.85608
5.82311
6.69941
6.63644
6.5879
6.04135
6.00732
5.94191
6.19881
6.18151
6.11321
5.59051
5.52271
5.51486
38.5096
38.5199
38.5202
52.0157
52.0301
52.0059
6.69544
6.64087
6.61643
38.6515
38.6591
38.6584
5.48257
5.41014
5.35774
38.543
38.5425
38.5494
7.06506
7.05776
7.00148
6.36123
6.29851
6.28093
6.89215
6.88179
6.82552
36.0884
36.0822
36.0763
6.42446
6.37044
6.3131
38.2614
38.259
38.2707
5.32438
5.25701
5.24553
58.1186
58.1257
58.107
7.054
7.00686
6.95499
36.8034
36.8018
36.8131
5.2854
5.22603
5.16814
5.97475
5.93174
5.86917
39.8118
39.8096
39.8186
38.4405
38.4524
38.448
36.0268
36.0321
36.0307
38.486
38.4887
38.4914
5.80126
5.73893
5.68562
7.74157
7.69378
7.64186
37.8797
37.873
37.8736
7.08765
7.03298
6.97095
7.76986
7.72924
7.67967
6.48342
6.43628
6.36014
38.609
38.5948
38.5887
38.1177
38.1334
38.1368
36.7153
36.7116
36.7186
7.0709
7.0231
6.96003
35.7592
35.7642
35.761
38.1111
38.1066
38.1161
38.4492
38.4579
38.4562
38.4858
38.488
38.4927
38.662
38.657
38.6516
38.5975
38.5841
38.5809
6.42824
6.35386
6.32143
38.1698
38.1805
38.1784
38.0012
38.0078
38.0195
6.78209
6.75156
6.68717
37.9938
38.0053
38.0056
36.7818
36.7782
36.783
6.412
6.34575
6.30694
38.427
38.4377
38.4365
6.93309
6.90708
6.85075
6.64849
6.59517
6.55342
7.12885
7.08139
7.00761
6.89205
6.81654
6.77651
7.59374
7.54927
7.4919
7.5108
7.47038
7.42921
37.8052
37.8043
37.8102
36.7535
36.7582
36.7554
37.1432
37.1413
37.1342
38.3984
38.4083
38.403
5.7466
5.7023
5.67134
37.9259
37.9303
37.9359
5.34565
5.30327
5.29318
36.827
36.8233
36.825
37.9059
37.9115
37.9189
36.802
36.8057
36.801
5.38003
5.3397
5.29429
38.2874
38.2912
38.298
37.137
37.1453
37.1479
5.68221
5.62472
5.57829
37.8264
37.8311
37.8357
5.92313
5.8988
5.8468
37.7114
37.7189
37.7272
5.70565
5.66213
5.63209
6.0755
6.04859
5.99255
38.0707
38.0658
38.0721
38.1984
38.2012
38.2102
5.9142
5.88355
5.85733
36.8808
36.8776
36.8793
37.5802
37.5893
37.5982
6.12734
6.11257
6.06563
37.974
37.9839
37.9833
36.8556
36.8604
36.8556
5.69242
5.64391
5.6275
5.74587
5.69484
5.64208
37.245
37.2411
37.234
37.5838
37.5839
37.5926
5.74233
5.69319
5.69348
38.0008
37.9992
38.005
38.11
38.1
38.1013
36.9413
36.9392
36.9407
37.4958
37.5051
37.5048
5.89916
5.88402
5.83481
5.95946
5.93221
5.8801
37.4166
37.4224
37.4269
5.56452
5.50652
5.46831
36.9086
36.9148
36.9108
37.9338
37.9426
37.9403
58.1863
58.1466
58.1251
6.22706
6.15965
6.10549
38.1314
38.1256
38.116
6.36993
6.31323
6.24299
37.3047
37.2999
37.2955
37.4181
37.41
37.4017
37.3274
37.335
37.3452
5.77544
5.72886
5.68634
36.9581
36.9564
36.9586
37.5082
37.5078
37.5143
37.9922
37.9904
37.9971
38.079
38.0813
38.0747
37.9239
37.92
37.9142
37.5046
37.4983
37.4916
37.3391
37.3391
37.3461
37.4191
37.4254
37.4239
6.20995
6.16683
6.10784
6.08296
6.01435
5.9494
6.76031
6.71675
6.66925
38.0327
38.039
38.0359
37.9213
37.9272
37.9377
7.40647
7.37143
7.36596
6.42257
6.36456
6.33265
6.76622
6.72683
6.66518
6.81394
6.81196
6.76008
6.30542
6.23789
6.20305
6.66584
6.63657
6.57825
35.8293
35.8332
35.8339
6.39798
6.33302
6.28709
37.0835
37.0792
37.0679
7.54545
7.50175
7.46914
37.6304
37.6248
37.6254
6.78665
6.74632
6.69219
37.4287
37.4277
37.4336
39.5418
39.5388
39.5464
6.61424
6.55301
6.49841
7.31474
7.27873
7.23579
7.23869
7.19558
7.17753
7.36208
7.32953
7.28447
8.00167
7.95371
7.89882
7.39021
7.37211
7.31488
6.96153
6.90313
6.86491
58.4703
58.4816
58.4771
37.2512
37.2459
37.2513
7.89754
7.83591
7.77935
8.48053
8.43361
8.37794
37.3644
37.3706
37.3667
37.1998
37.199
37.2038
37.8377
37.8362
37.8439
37.6244
37.626
37.6182
7.7267
7.67914
7.63322
37.826
37.833
37.8416
7.34321
7.3122
7.25807
37.208
37.2081
37.1987
37.7262
37.7182
37.7114
37.9367
37.9316
37.9333
7.15593
7.16507
7.0967
37.1003
37.0925
37.089
6.09229
6.05502
5.99785
38.014
38.0083
38.0035
5.95252
5.89737
5.85526
37.7195
37.7179
37.7247
37.7244
37.7332
37.7385
8.36097
8.31398
8.25925
38.0634
38.0573
38.0533
58.3453
58.3737
58.3611
7.76146
7.76888
7.69726
39.6576
39.6592
39.6672
6.92231
6.86483
6.78877
37.1232
37.1307
37.139
45.069
45.1115
45.1239
8.37201
8.32292
8.26684
37.9008
37.9132
37.913
37.7705
37.7731
37.7817
8.38763
8.38079
8.32036
37.2372
37.248
37.2499
7.70008
7.65107
7.58526
6.84517
6.78279
6.71614
38.0393
38.0422
38.0384
37.7881
37.792
37.7998
38.09
38.0963
38.0976
37.0488
37.0412
37.0393
37.2735
37.2697
37.2704
7.54288
7.48237
7.42485
8.03585
8.00553
7.94356
37.6251
37.6136
37.6038
37.102
37.0992
37.088
7.68559
7.61622
7.56551
37.2369
37.2396
37.2456
37.8292
37.8346
37.8387
37.7696
37.7728
37.7858
8.46216
8.42151
8.36808
37.368
37.3717
37.3812
36.9944
36.9827
36.9797
37.8355
37.8425
37.847
37.0335
37.0282
37.0178
37.4349
37.4309
37.4211
36.9547
36.943
36.939
36.9785
36.974
36.9643
37.3899
37.3879
37.391
37.3394
37.3244
37.3214
7.85215
7.79724
7.77401
37.2522
37.2475
37.2469
8.71815
8.67784
8.64333
7.9965
7.95129
7.8828
36.9008
36.8915
36.889
8.89916
8.87621
8.83393
37.4672
37.47
37.4805
8.38493
8.33632
8.28522
37.4885
37.4853
37.493
8.13736
8.10892
8.04967
7.76776
7.69331
7.64777
8.15339
8.11788
8.04953
36.9364
36.9327
36.9235
7.78972
7.71926
7.6662
8.3153
8.27819
8.2345
37.8884
37.88
37.8856
8.31931
8.28789
8.25138
37.7083
37.7064
37.7133
37.1075
37.1133
37.1106
5.94564
5.93082
5.89572
37.7942
37.7972
37.8043
5.74599
5.71291
5.69932
37.2453
37.2358
37.2306
36.864
36.8546
36.8532
37.2363
37.2285
37.2241
39.2422
39.2517
39.2621
38.033
38.0304
38.043
6.80031
6.74931
6.71114
6.84341
6.78482
6.751
7.15619
7.12404
7.07679
7.09757
7.08002
7.03366
6.78628
6.73266
6.70564
37.29
37.2866
37.2822
36.8894
36.8838
36.8897
7.10075
7.06841
7.01816
6.85221
6.80296
6.77796
6.14777
6.12007
6.06566
36.9876
36.9824
36.9784
55.3029
55.3037
55.3192
25.2742
25.2816
25.2773
6.84639
6.79613
6.77193
55.0027
55.0059
55.0216
26.0621
26.0687
26.0707
55.128
55.13
55.1426
6.25229
6.1937
6.14122
7.4239
7.40623
7.36198
58.4554
58.4521
58.4632
6.25693
6.20337
6.1462
7.34533
7.30876
7.32075
38.2726
38.2705
38.279
38.136
38.1245
38.1305
55.0072
55.0306
55.0306
7.05379
7.03363
6.99011
55.0003
54.9995
55.0175
6.93081
6.90545
6.84907
6.71124
6.66132
6.63521
6.62822
6.57428
6.54006
7.18856
7.13791
7.10636
37.2483
37.2406
37.2347
37.7993
37.7962
37.8027
36.9693
36.9618
36.9557
37.0094
37.0076
37.0106
6.82663
6.79392
6.75219
37.0863
37.0735
37.0687
7.03327
7.00936
6.96998
38.3177
38.3185
38.3223
58.725
58.7343
58.7294
6.93087
6.88941
6.85807
7.2085
7.17944
7.13204
54.7842
54.8094
54.8064
58.5349
58.5362
58.5521
51.4544
51.4523
51.4889
36.0453
36.043
36.0488
7.73576
7.69694
7.6551
37.1356
37.1294
37.1215
58.3246
58.3586
58.3491
36.6373
36.6473
36.6446
6.83316
6.80185
6.76753
7.44739
7.3962
7.34125
8.15944
8.12383
8.09627
38.2723
38.2826
38.2936
7.73845
7.70364
7.6802
44.8316
44.8643
44.9068
39.2135
39.2168
39.2326
25.9166
25.9139
25.9398
58.5171
58.5153
58.5249
55.0909
55.1301
55.1291
26.0385
26.0455
26.0382
7.35458
7.36271
7.31808
58.7121
58.7091
58.7179
7.73149
7.706
7.71484
8.29102
8.24822
8.22178
8.67755
8.65415
8.61652
7.83484
7.8112
7.74697
7.66961
7.65334
7.59448
8.44693
8.40449
8.3656
8.85508
8.82474
8.77732
8.28698
8.23176
8.18856
58.8441
58.8379
58.8448
7.6698
7.62903
7.59452
8.74946
8.69661
8.64242
38.1215
38.1237
38.1123
8.46865
8.4552
8.40059
8.07232
8.02429
8.01593
37.0918
37.0802
37.0799
58.3805
58.362
58.3288
26.3356
26.3321
26.3357
9.2461
9.20719
9.15806
8.08443
8.04622
8.00262
44.8653
44.8808
44.9097
9.22212
9.17491
9.11941
51.6718
51.6906
51.6974
54.5239
54.5162
54.5245
51.4926
51.489
51.5266
9.66095
9.63325
9.59643
37.8258
37.8372
37.8372
39.3878
39.4014
39.3992
36.7721
36.7643
36.7542
37.8902
37.8941
37.9061
8.40268
8.35756
8.32497
7.85165
7.81064
7.80961
37.4507
37.2052
36.9813
37.9123
37.9094
37.9149
8.98185
8.93372
8.89107
8.40697
8.3618
8.35643
8.84249
8.80674
8.76731
8.99807
8.96042
8.91323
9.42176
9.38921
9.34548
9.48375
9.48599
9.43347
9.01502
8.96291
8.94757
38.3288
38.3359
38.3391
36.4358
36.4343
36.4425
37.1666
37.1639
37.1611
33.7153
33.7102
33.2796
43.0446
43.0346
43.0281
8.91023
8.85052
8.80955
9.20926
9.20237
9.1477
44.569
44.5964
44.6275
35.9844
35.9913
35.9908
9.39566
9.3601
9.31591
9.85994
9.82996
9.79964
9.22432
9.20503
9.15738
58.8099
58.8121
58.8061
51.0146
51.0682
51.0803
58.9213
58.9142
58.9151
54.7086
54.7299
54.7229
38.2646
38.2632
38.2764
9.55655
9.51144
9.47261
8.99052
8.94568
8.89509
9.52685
9.47337
9.43036
9.78005
9.75891
9.7072
9.97827
9.96806
9.92219
37.1587
37.1501
37.1415
46.1538
46.1719
46.1885
37.8668
37.8654
37.87
37.1106
37.0972
37.0907
9.29556
9.28066
9.23876
8.98204
8.92608
8.90135
37.1819
37.1776
37.1708
9.70436
9.67115
9.63336
9.10458
9.05842
8.9982
37.9981
38.0003
38.0136
8.97892
8.95424
8.89744
9.62312
9.58866
9.57069
9.93489
9.90679
9.88139
57.5227
57.5241
57.5417
9.94315
9.91318
9.8739
57.4496
57.4599
57.4683
7.91185
7.85841
7.82489
8.19656
8.17607
8.13267
7.91692
7.86579
7.83516
8.17129
8.14299
8.09494
38.3241
38.3297
38.3317
57.6385
57.6254
57.6181
7.84286
7.79532
7.7675
57.7111
57.7216
57.7282
7.1647
7.14341
7.09923
8.07613
8.05147
8.00222
57.6137
57.6148
57.6268
57.4173
57.4325
57.4448
37.9559
37.963
37.9817
7.75999
7.71536
7.67951
38.0643
38.0812
38.0885
58.4991
58.5044
58.5165
37.9803
37.981
37.9935
7.94214
7.88947
7.86203
57.3778
57.3986
57.4083
8.18753
8.16598
8.12759
57.5766
57.5841
57.6061
38.3904
38.3937
38.4071
8.1164
8.08892
8.04989
57.5888
57.6048
57.6058
7.62125
7.57649
7.56457
8.06378
8.07054
8.02942
57.5379
57.5408
57.5621
55.2568
55.253
55.2593
57.2775
57.3123
57.3248
57.5043
57.5137
57.5272
38.2315
38.2456
38.2602
38.2592
38.272
38.2803
7.54155
7.50146
7.49078
44.5999
44.6191
44.6512
38.0895
38.1024
38.1173
57.3804
57.3796
57.3922
38.1013
38.0975
38.1069
57.116
57.1072
57.1263
39.502
39.5058
39.5127
38.0032
37.9992
38.0069
7.82482
7.81621
7.77905
7.61058
7.57329
7.52975
8.19271
8.14999
8.10626
57.316
57.3438
57.3686
57.3329
57.3612
57.3636
57.4166
57.4217
57.4388
8.02799
7.9899
7.9796
8.47188
8.4315
8.40534
8.57664
8.55031
8.51448
57.5341
57.5493
57.5525
8.17175
8.13814
8.10534
57.0772
57.0798
57.119
55.1143
55.1109
55.1224
57.2142
57.239
57.2491
8.00197
7.95867
7.91491
8.4552
8.4179
8.3774
8.93875
8.89701
8.85588
8.52017
8.48791
8.4598
56.7911
56.8301
56.8397
57.1904
57.1732
57.1564
7.43392
7.3811
7.3346
57.5057
57.5231
57.53
57.6136
57.6239
57.6283
36.0596
36.0562
36.0637
57.491
57.4983
57.5088
46.1663
46.1636
46.1873
8.91273
8.86905
8.82869
8.43287
8.4122
8.37897
57.5374
57.5535
57.5613
7.72548
7.67653
7.62454
57.4219
57.4256
57.4437
9.50271
9.48419
9.44701
56.5122
56.5077
56.5391
8.38737
8.34332
8.2952
38.3817
38.3884
38.3966
9.26349
9.22971
9.20087
38.2284
38.2353
38.2453
57.0561
57.0692
57.0523
8.35177
8.29849
8.29404
8.96907
8.92192
8.88174
9.57463
9.54956
9.50563
55.1685
55.1888
55.1843
57.5663
57.5715
57.5823
9.46818
9.42336
9.37726
8.93895
8.88423
8.83317
38.1207
38.1394
38.1456
56.6978
56.7184
56.7339
9.92122
9.89655
9.85671
38.0661
38.0695
38.0797
38.117
38.1131
38.1193
56.1696
56.1733
56.1995
9.87148
9.83696
9.79979
56.5815
56.6108
56.6003
9.22753
9.16446
9.12122
57.4078
57.4246
57.4322
10.1566
10.1294
10.0965
38.0454
38.0621
38.0653
54.892
54.9243
54.9486
9.55462
9.52803
9.4893
8.53934
8.50384
8.45615
10.0743
10.0409
10.0019
10.4917
10.4686
10.4394
9.34243
9.28722
9.24698
37.9752
37.9785
37.9924
38.0405
38.053
38.0606
54.8264
54.8456
54.8868
9.74536
9.7241
9.68325
9.53278
9.49012
9.46397
58.6227
58.6035
58.5881
10.0374
10.0096
10.02
38.1283
38.1236
38.1221
9.79497
9.77244
9.72314
10.3045
10.3084
10.3419
38.168
38.1745
38.18
10.2202
10.1992
10.1628
9.9591
9.93168
9.90573
57.344
57.3525
57.3688
10.5307
10.5284
10.4906
38.1419
38.1482
38.1586
9.96389
9.99044
10.0125
55.5452
55.5336
55.5433
55.7702
55.7836
55.8087
45.9309
45.956
45.9719
56.1236
56.1488
56.1478
55.7448
55.7631
55.8002
57.4365
57.4477
57.4515
10.7293
10.6923
10.6573
10.345
10.3651
10.3939
9.89499
9.90994
9.94639
45.8872
45.9003
45.9279
38.3684
38.371
38.3818
38.2536
38.2487
38.2543
10.8395
10.837
10.8048
55.5022
55.5077
55.5206
10.2022
10.1881
10.2032
38.2515
38.2556
38.2724
38.3948
38.4105
38.4114
9.93171
9.89367
9.86865
10.4126
10.3814
10.3675
38.2825
38.3009
38.309
10.4672
10.4387
10.4378
55.4891
55.4938
55.5472
55.2499
55.3019
55.3089
57.2165
57.235
57.2427
10.1039
10.0878
10.0514
10.6537
10.6168
10.5981
58.5922
58.5983
58.5832
10.2418
10.2125
10.1726
38.2595
38.2731
38.2829
58.9006
58.8941
58.8953
38.1809
38.1758
38.1881
58.878
58.8838
58.8762
10.2079
10.1677
10.1267
54.7003
54.7355
54.735
55.0978
55.1143
55.1784
57.1289
57.1345
57.1485
38.242
38.2477
38.2588
10.6573
10.6246
10.5847
10.559
10.5239
10.495
10.5308
10.4987
10.4706
10.8273
10.8024
10.7574
59.0169
59.0106
59.014
57.189
57.2001
57.2125
10.674
10.6558
10.6294
11.1514
11.1174
11.0804
54.5294
54.5694
54.5603
54.2099
54.2197
54.2326
57.0298
57.039
57.0552
57.0717
57.0826
57.0969
54.0689
54.0794
54.1493
54.3136
54.3228
54.3561
53.6381
53.6986
53.6974
8.73101
8.69175
8.67382
53.3954
53.3959
53.4813
55.3884
55.3798
55.3835
58.8899
58.9034
58.8868
56.8876
56.9002
56.9169
38.4175
38.4233
38.4236
54.9592
54.9835
54.9672
8.66674
8.62676
8.60929
8.7633
8.72943
8.68952
55.5085
55.4883
55.4829
59.0924
59.0864
59.0898
57.1463
57.1647
57.1617
8.94143
8.8945
8.85411
9.30227
9.26317
9.21519
45.6498
45.665
45.6924
9.1514
9.1338
9.08874
8.86083
8.81411
8.78227
9.18606
9.15716
9.11512
9.13177
9.0994
9.07004
8.94153
8.92791
8.88309
9.57666
9.53097
9.49347
56.9189
56.9314
56.9496
54.3557
54.4003
54.458
54.7599
54.7496
54.7303
44.199
44.222
44.2102
54.2284
54.2951
54.2959
54.0357
54.0642
54.0837
9.11095
9.11751
9.06284
55.4309
55.4217
55.3988
9.5055
9.47361
9.48767
58.9766
58.9817
58.974
9.17007
9.13505
9.09806
9.12711
9.13384
9.09225
8.58777
8.54766
8.56202
8.39628
8.3505
8.315
8.84539
8.81336
8.77406
9.67968
9.65151
9.61742
9.29931
9.25191
9.24058
59.1939
59.1867
59.1855
55.1451
55.0938
55.0896
9.22974
9.19691
9.15067
56.7133
56.7302
56.7424
8.78462
8.74638
8.71194
9.0095
8.96952
8.91973
8.59703
8.57949
8.5305
53.8546
53.8655
53.9231
54.9324
54.8908
54.8776
53.1392
53.2132
53.2144
9.57813
9.53839
9.49429
9.10321
9.06066
9.02827
55.0607
55.0216
55.0134
54.8257
54.8152
54.8183
9.60634
9.60715
9.5562
56.5493
56.5477
56.5671
50.7174
50.7225
50.7655
9.51002
9.46106
9.4243
56.5764
56.5925
56.6089
50.2694
50.3095
50.3251
9.98996
9.95389
9.91544
9.43545
9.43418
9.38962
9.01031
8.96695
8.96767
8.96159
8.91735
8.87397
9.44704
9.40592
9.36366
9.93811
9.89647
9.85585
9.36495
9.32332
9.28828
39.5638
39.5695
39.5745
36.0257
36.0259
36.0304
10.1929
10.1461
10.1201
59.0425
59.0499
59.0415
8.98625
8.93826
8.88979
9.61563
9.56875
9.51617
53.9275
53.9452
53.97
9.58755
9.53031
9.47772
10.1549
10.1064
10.0612
10.4759
10.4637
10.4266
10.2096
10.1686
10.1514
59.1805
59.1822
59.1652
10.2588
10.2455
10.2015
55.0384
54.9873
54.9598
10.3645
10.3357
10.2993
10.8033
10.7633
10.7237
59.3824
59.3754
59.381
59.1196
59.1101
59.1021
52.535
52.5425
52.6156
10.3306
10.2982
10.2564
54.0094
54.0074
54.0196
10.6663
10.6295
10.608
10.9384
10.9319
10.8917
49.9173
49.9239
49.9688
35.9839
35.9893
35.9871
10.1529
10.1102
10.0745
55.0818
55.0399
55.0439
55.4638
55.4559
55.4283
10.8381
10.8043
10.7674
56.007
56.0234
56.0437
10.5272
10.497
10.4571
56.1979
56.2253
56.2261
53.9666
54.0029
54.0178
11.4061
11.3755
11.3547
11.2689
11.2331
11.2019
28.2795
28.2899
28.2861
56.0171
56.0293
56.0486
10.3428
10.3034
10.2684
36.0619
36.0602
36.0636
55.7771
55.7403
55.7154
55.7934
55.7755
55.7728
11.4131
11.4155
11.3748
59.1641
59.1584
59.1616
55.8187
55.8266
55.8486
10.7362
10.7004
10.6646
10.7134
10.6801
10.6858
11.0437
11.0128
11.003
55.3351
55.3349
55.3169
36.0389
36.0449
36.04
43.8458
43.8694
43.8705
53.7609
53.7585
53.7699
33.6585
33.433
33.1733
11.111
11.0851
11.0498
11.5925
11.5612
11.5236
11.7558
11.7605
11.7189
11.1227
11.0974
11.0948
53.1447
53.1605
53.208
39.4001
39.3982
39.4073
11.4504
11.4302
11.3958
11.2839
11.2485
11.2288
56.0118
55.989
55.9781
53.7879
53.7842
53.802
54.9223
54.9378
54.9557
11.1785
11.1505
11.118
55.9917
55.9695
55.9748
11.4665
11.4598
11.433
55.7352
55.7423
55.7625
10.6307
10.6378
10.6772
53.0942
53.1207
53.1423
55.1645
55.1773
55.1727
54.5248
54.524
54.5381
45.6429
45.6657
45.6796
54.9019
54.8351
54.8129
52.5818
52.5595
52.5762
39.1479
39.1535
39.1658
10.947
10.9711
10.9741
59.5845
59.6077
59.5966
59.3216
59.3356
59.3285
10.9828
10.9767
11.0079
54.8058
54.8207
54.839
11.1695
11.1474
11.1444
53.5036
53.5452
53.5567
55.828
55.8374
55.8523
55.219
55.2082
55.222
11.4128
11.3783
11.3592
11.2527
11.2168
11.1843
11.5936
11.5659
11.5285
30.8571
30.8399
30.7955
59.2102
59.1998
59.1896
11.5028
11.4702
11.4442
11.4586
11.4262
11.4316
52.6076
52.6343
52.7046
52.8253
52.8888
52.9006
11.4977
11.4739
11.439
59.1603
59.1668
59.1576
10.77
10.7678
10.7318
11.3507
11.303
11.2746
59.603
59.6005
59.612
11.6585
11.6383
11.6009
55.0329
55.0518
55.042
39.6526
39.6273
39.4835
55.1192
55.0872
55.056
45.9314
45.9624
45.9621
59.2779
59.2751
59.2794
55.4339
55.4542
55.4451
49.6498
49.6694
49.6661
9.92702
9.88349
9.85158
9.8181
9.77087
9.75825
10.1614
10.1523
10.1113
9.88615
9.8483
9.80342
10.2439
10.1995
10.1576
59.8026
59.7937
59.805
53.2528
53.2412
53.2449
55.6319
55.6267
55.6381
10.1278
10.0794
10.0361
9.64605
9.60879
9.56596
55.3909
55.3531
55.3087
55.3852
55.4104
55.4074
56.2042
56.1862
56.1711
39.2986
39.309
39.3054
9.94974
9.91971
9.88162
53.343
53.4075
53.4077
53.4733
53.4751
53.5025
35.939
35.944
35.9531
10.1918
10.1663
10.1267
52.6917
52.706
52.7606
56.1462
56.1265
56.1292
49.4951
49.4942
49.508
10.1182
10.0927
10.0587
9.82875
9.78882
9.75729
52.5162
52.4912
52.5375
59.7102
59.7281
59.7256
9.60873
9.57541
9.57438
10.0478
10.0514
10.0152
9.95303
9.92886
9.88809
9.53642
9.49417
9.45778
52.3481
52.3379
52.3637
53.0271
53.0518
53.0096
36.8411
36.8471
36.8388
10.0222
9.97841
9.95528
9.87613
9.8385
9.80262
49.446
49.4639
49.4843
10.3482
10.297
10.2522
10.4612
10.4245
10.3788
10.3822
10.3426
10.292
10.249
10.1993
10.1615
36.8687
36.8549
36.8451
10.1166
10.0841
10.0907
55.2254
55.2312
55.2453
43.985
43.9829
43.9928
53.351
53.389
53.4388
55.2482
55.2553
55.2739
55.1344
55.1172
55.0856
10.6978
10.6598
10.6157
43.6344
43.6444
43.6628
10.6264
10.5807
10.5398
11.09
11.0516
11.0115
10.3066
10.2887
10.2534
10.0347
9.98984
9.97995
9.98758
9.94341
9.90939
10.7342
10.7001
10.6682
35.8132
35.8259
35.8212
49.3489
49.3855
49.384
56.3118
56.2928
56.2754
55.0073
54.9973
55.0081
43.6257
43.6414
43.6631
10.1336
10.0965
10.0523
10.6531
10.6177
10.5811
10.3813
10.3377
10.2845
11.0083
10.9606
10.9218
10.6491
10.6142
10.5766
11.1059
11.0759
11.0306
11.3358
11.3141
11.2758
11.1177
11.0724
11.0403
56.2387
56.2142
56.2151
49.336
49.3531
49.3784
11.4331
11.4083
11.3689
10.9553
10.9124
10.884
58.46
58.4252
58.405
11.3059
11.2664
11.2345
11.1518
11.1296
11.0921
54.7405
54.7701
54.7544
10.9034
10.8539
10.821
11.2624
11.2363
11.1924
11.6238
11.6043
11.566
11.4159
11.3832
11.3668
45.6388
45.6378
45.6697
11.583