/*--------------------------------*- C++ -*----------------------------------*\
| =========                 |                                                 |
| \\      /  F ield         | OpenFOAM: The Open Source CFD Toolbox           |
|  \\    /   O peration     | Version:  v2012                                 |
|   \\  /    A nd           | Website:  www.openfoam.com                      |
|    \\/     M anipulation  |                                                 |
\*---------------------------------------------------------------------------*/
FoamFile
{
    version     2.0;
    format      ascii;
    class       volScalarField;
    location    "0";
    object      Plift3;
}
// * * * * * * * * * * * * * * * * * * * * * * * * * * * * * * * * * * * * * //

dimensions      [0 2 -2 0 0 0 0];


internalField   nonuniform List<scalar> 
228296
(
66.7306
66.7321
66.7627
41.9178
41.926
41.9168
38.7437
38.7427
38.752
0.779815
0.755133
0.713478
67.2179
67.2355
67.2279
53.031
53.0282
53.0519
66.8911
66.8889
66.9167
65.375
65.3732
65.3389
65.3732
65.3604
65.3326
41.6006
41.6126
41.6252
41.7615
41.7689
41.7743
66.8152
66.8118
66.8203
66.7365
66.7452
66.7358
66.8672
66.8588
66.8632
67.1239
67.1228
67.1448
60.0563
60.0527
60.0711
0.366553
0.394021
0.354101
66.8112
66.8169
66.8068
64.899
64.8843
64.9116
41.4248
41.4335
41.4485
38.9372
38.9092
38.9026
0.669047
0.651483
0.609427
66.4999
66.5022
66.5187
64.5586
64.6089
64.6212
51.5792
51.5689
51.5931
0.440913
0.46481
0.420888
41.701
41.699
41.7088
66.7599
66.7513
66.7604
66.6421
66.657
66.6586
66.5992
66.5943
66.6097
42.1413
42.1493
42.1452
64.8359
64.8738
64.8774
64.2643
64.3083
64.3138
37.6556
37.6594
37.6535
51.4827
51.4704
51.4998
65.7507
65.727
65.7184
0.755485
0.802482
0.812082
51.5738
51.5644
51.5676
0.365363
0.391805
0.353106
41.4558
41.4512
41.466
45.5693
45.5671
45.5862
66.8589
66.8327
66.8152
44.1585
44.1722
44.1677
66.4928
66.4883
66.5014
0.927962
0.972724
0.972798
41.6681
41.674
41.6837
0.496734
0.503834
0.563045
66.6759
66.6869
66.6836
67.3093
67.2957
67.2733
9.29074
9.27851
9.2636
67.2265
67.201
67.1934
66.4336
66.4517
66.4476
51.2339
51.2297
51.261
9.65126
9.63959
9.62629
0.407935
0.414293
0.47582
39.4284
39.4473
39.4466
0.866533
0.857959
0.905886
65.7868
65.7814
65.7532
42.2298
42.2219
42.2148
51.2147
51.2495
51.2502
66.1338
66.1083
66.0964
63.4298
63.4258
63.4542
66.9958
66.9887
66.9959
66.9439
66.9338
66.9292
67.4089
67.404
67.3924
59.8958
59.9181
59.9022
63.9505
63.9515
64.0076
66.3397
66.3587
66.355
63.3196
63.3123
63.3688
67.4103
67.3935
67.3775
66.375
66.3749
66.3868
41.3092
41.3258
41.3257
41.3459
41.3442
41.3581
67.7109
67.6869
67.6594
0.349332
0.370521
0.337432
0.663147
0.638908
0.652561
0.45265
0.494641
0.461381
0.654779
0.698647
0.714022
0.296415
0.332374
0.290383
63.8044
63.7608
63.7676
63.8485
63.8395
63.7982
66.9911
67.0022
67.0044
0.698722
0.736042
0.751698
66.8955
66.9003
66.9141
0.407096
0.418731
0.469967
13.2742
13.269
13.2863
23.1489
23.1491
23.1716
59.1897
59.2023
59.2534
0.377904
0.345491
0.324646
67.7992
67.7939
67.7744
0.296525
0.314394
0.270072
62.8617
62.946
62.9525
41.1941
41.2064
41.2055
38.4075
38.4141
38.4301
0.341161
0.348581
0.396196
22.7678
22.7757
22.8022
37.6806
37.6816
37.6706
66.7139
66.6899
66.6628
38.543
38.5425
38.5522
0.354901
0.36499
0.413496
67.317
67.304
67.3189
41.8184
41.8142
41.8197
14.0559
14.0461
14.048
66.5666
66.5394
66.5286
66.6071
66.6168
66.6095
67.1853
67.1991
67.1855
66.1986
66.2159
66.2314
64.0986
64.0913
64.0857
21.4711
21.4918
21.4857
66.9813
66.996
67.0011
67.4395
67.4271
67.4273
17.7574
17.7466
17.7586
1.09345
1.11688
1.09482
0.303642
0.322227
0.366535
40.8921
40.8884
40.9006
66.8864
66.8898
66.9067
0.308825
0.327639
0.286931
41.643
41.6377
41.6316
50.8642
50.8588
50.8877
63.5251
63.5695
63.6033
0.606083
0.58859
0.542049
63.2379
63.2122
63.2744
53.9418
53.9665
53.9597
41.6053
41.6103
41.6059
63.6468
63.6895
63.7002
67.1415
67.1262
67.1181
66.908
66.898
66.9165
0.588229
0.572664
0.593923
0.348387
0.372825
0.340011
65.9671
65.9768
65.9963
0.717143
0.690947
0.704892
67.142
67.1757
67.1667
15.7874
15.8044
15.7975
63.3712
63.366
63.4127
66.0188
66.0119
66.0314
40.9216
40.9185
40.9288
0.408018
0.43817
0.406289
0.719578
0.695094
0.704916
40.8111
40.8211
40.8178
62.7079
62.7894
62.7961
65.7502
65.7751
65.7781
67.401
67.4051
67.3878
0.354327
0.386727
0.350255
0.689546
0.673268
0.691834
16.9005
16.8917
16.8961
0.432065
0.460053
0.429002
0.717998
0.700187
0.713979
53.5689
53.583
53.6074
65.7064
65.7071
65.7301
66.8821
66.8825
66.8994
65.396
65.429
65.4428
0.353618
0.388939
0.346935
62.1239
62.1561
62.2474
53.525
53.5402
53.5302
16.4273
16.4178
16.4096
0.734883
0.709412
0.730001
66.9559
66.9371
66.9386
66.9518
66.954
66.9417
40.8147
40.8215
40.814
0.35583
0.37959
0.346158
53.1231
53.1186
53.1438
66.7085
66.7001
66.7087
65.2758
65.2708
65.2997
0.404404
0.439491
0.389261
0.867103
0.840973
0.85453
0.614026
0.652653
0.608762
1.34932
1.31827
1.28775
0.738817
0.717973
0.67497
66.7007
66.6998
66.711
0.490317
0.446685
0.42454
63.163
63.1453
63.1728
0.617718
0.649658
0.595273
0.973232
0.950327
0.966935
62.5311
62.5116
62.5779
0.81438
0.789223
0.807014
1.38736
1.34024
1.30946
66.8273
66.8388
66.8373
0.586373
0.527149
0.480692
0.975913
0.948105
0.963357
1.59126
1.57153
1.52786
65.3059
65.3032
65.3242
65.0382
65.0658
65.0711
63.0388
63.0691
63.0529
1.30041
1.2555
1.22101
0.867877
0.834166
0.848623
62.2784
62.3269
62.366
6.63487
6.63472
6.60643
6.09683
6.12026
6.13562
50.8692
50.8999
50.902
23.2443
23.2372
23.2379
1.47221
1.43118
1.40209
0.490759
0.511384
0.460645
62.0036
62.0715
62.049
67.1624
67.1511
67.1538
65.0017
65.0007
65.0232
50.4841
50.5206
50.5186
1.84894
1.82371
1.77831
0.985802
0.95078
0.959647
0.85256
0.792698
0.796414
64.8361
64.8532
64.8497
41.3127
41.306
41.2979
63.2515
63.2538
63.2753
53.9949
53.9918
54.0065
61.8036
61.8303
61.9067
1.67585
1.63986
1.61103
1.96523
1.93468
1.88494
64.8628
64.8595
64.8762
1.47378
1.44817
1.40802
64.3534
64.3531
64.3778
66.9054
66.9139
66.9135
64.6554
64.6763
64.6714
1.34681
1.36064
1.3276
66.7951
66.7952
66.8094
0.780555
0.808333
0.80874
0.325811
0.348516
0.301441
64.4943
64.5262
64.5225
62.9277
62.9343
62.9688
0.639765
0.612712
0.573463
62.7186
62.7764
62.7519
62.0593
62.0477
62.0824
1.17262
1.13371
1.13402
1.20725
1.17019
1.17918
1.65693
1.64956
1.6055
67.1896
67.1841
67.1963
1.58488
1.53396
1.53731
64.7152
64.7114
64.7269
1.62891
1.61532
1.62995
1.30165
1.2662
1.24224
1.50373
1.48004
1.43945
64.0999
64.1132
64.1408
62.8647
62.8909
62.8607
1.22993
1.18573
1.15547
62.6286
62.6669
62.6348
67.09
67.1011
67.0948
62.1149
62.1317
62.1233
1.40486
1.3888
1.35235
1.24598
1.22161
1.19995
66.7953
66.8137
66.8182
1.4352
1.41268
1.37128
1.16872
1.11917
1.09324
64.2342
64.219
64.215
0.601446
0.578905
0.536993
40.8294
40.8392
40.8359
63.1269
63.1155
63.1296
62.944
62.9634
62.9276
62.1448
62.1817
62.1951
1.37732
1.35859
1.32292
63.6054
63.601
63.6282
63.5574
63.5643
63.5891
60.1043
60.0869
60.0979
66.8611
66.8537
66.864
67.1938
67.1929
67.1794
0.706933
0.683357
0.685331
63.3259
63.3601
63.3594
37.2488
37.2567
37.2636
46.5324
46.5633
46.5328
66.7781
66.782
66.798
37.0075
37.0154
37.0343
1.2452
1.20114
1.17455
67.5368
67.5244
67.5181
1.32271
1.30966
1.27923
63.3605
63.3542
63.3728
40.8439
40.8425
40.8532
62.9321
62.9814
62.991
62.978
63.0153
63.0093
1.19524
1.16128
1.12304
35.4727
35.4617
35.4491
1.56674
1.56625
1.52582
1.17806
1.13907
1.10822
1.5718
1.54818
1.51701
66.9288
66.9386
66.9554
1.10585
1.063
1.04406
1.39641
1.37684
1.33634
41.1855
41.1967
41.1976
67.1594
67.1605
67.1423
1.18253
1.14351
1.12154
41.6114
41.6051
41.5979
41.6638
41.6542
41.6468
1.55067
1.51357
1.47108
66.9372
66.9305
66.9174
1.40974
1.39415
1.35505
41.8747
41.8603
41.8524
41.8857
41.884
41.8706
41.7443
41.7611
41.7643
41.5574
41.5617
41.5795
1.17907
1.14672
1.13759
1.54851
1.54016
1.49463
1.20317
1.16264
1.14665
40.6
40.5963
40.6044
1.43316
1.40833
1.35905
1.56149
1.53008
1.47695
41.7263
41.7255
41.7423
41.9118
41.8998
41.9059
67.0662
67.0526
67.0527
41.9569
41.9404
41.9236
1.18643
1.14257
1.11469
66.668
66.655
66.6784
1.418
1.36676
1.32127
42.0623
42.0523
42.0606
2.25251
2.23875
2.20272
1.86503
1.82272
1.78653
1.85703
1.81988
1.77456
41.8891
41.8894
41.8763
2.01407
2.00408
1.95959
39.3454
39.3422
39.3334
2.47009
2.43251
2.4005
1.61889
1.56803
1.55465
1.82269
1.8059
1.74736
1.85303
1.81083
1.76264
2.62113
2.60904
2.56915
41.8682
41.8625
41.8655
1.47133
1.43124
1.42301
1.71526
1.69609
1.64393
41.4204
41.4207
41.4138
2.22533
2.1805
2.15428
39.3836
39.3927
39.3929
1.73263
1.70726
1.65609
39.2976
39.3041
39.2966
2.45055
2.42666
2.37902
41.4617
41.457
41.463
1.50595
1.4541
1.43518
39.3489
39.346
39.354
41.3569
41.3635
41.3765
1.68335
1.65575
1.61018
39.2989
39.3022
39.3136
39.1577
39.1686
39.1752
39.1422
39.1367
39.1445
1.43699
1.37764
1.33481
39.0533
39.0583
39.075
41.404
41.4142
41.4195
2.21161
2.16072
2.12066
2.58413
2.56441
2.52718
41.1104
41.1038
41.108
1.79119
1.76384
1.71539
67.3709
67.3429
67.3218
41.6803
41.6957
41.7001
2.46002
2.4162
2.37552
40.7171
40.7278
40.7273
1.5904
1.54188
1.51516
2.01924
1.99013
1.94351
67.6266
67.6105
67.595
43.5932
43.5841
43.5868
41.0615
41.0555
41.0599
44.0365
44.0371
44.0576
2.90016
2.87017
2.83755
41.6767
41.6867
41.6961
17.5377
17.5547
17.5518
2.90542
2.87362
2.83885
2.36376
2.32771
2.285
1.88378
1.84004
1.80409
43.1671
43.1732
43.1888
41.2258
41.2197
41.226
41.0356
41.0462
41.0503
41.1492
41.1492
41.1591
2.72153
2.71234
2.66629
2.50684
2.46684
2.4479
40.6023
40.5947
40.5957
37.4147
37.4081
37.4113
18.6582
18.4961
19.5885
2.37233
2.36493
2.31978
2.0632
2.01557
1.99946
41.261
41.2708
41.2738
2.42461
2.40237
2.35806
53.2351
53.2573
53.2836
37.9105
37.9212
37.9203
2.44075
2.39572
2.36961
2.67862
2.66141
2.61683
32.1658
31.8444
31.3813
3.3929
3.34448
3.30303
1.90194
1.87455
1.8641
1.89185
1.86439
1.85385
2.12244
2.09666
2.07902
39.2833
39.2902
39.2861
1.53731
1.51934
1.491
40.5921
40.5934
40.5846
1.93675
1.9308
1.89342
40.7274
40.7204
40.7205
1.50872
1.5136
1.47926
67.5458
67.5519
67.5327
37.2592
37.2552
37.2644
39.1135
39.1266
39.1294
2.08172
2.05784
2.0376
49.6033
49.5986
49.6121
1.86087
1.83113
1.80535
39.0499
39.0607
39.0564
41.8565
41.8513
41.8406
49.8588
49.8816
49.8721
37.8399
37.8309
37.822
2.01862
1.98848
1.98065
41.9806
41.9746
41.977
41.3676
41.3826
41.3839
1.62022
1.59121
1.55803
2.05438
2.04733
2.00819
1.6225
1.59208
1.58635
2.09209
2.06567
2.02908
41.2345
41.2388
41.2526
2.10455
2.09346
2.05772
38.0594
38.0709
38.059
1.68763
1.65353
1.6166
1.65429
1.61207
1.57337
75.7344
75.7052
75.6943
1.79028
1.75164
1.71958
1.91974
1.90085
1.87432
46.8668
46.8543
46.8813
37.846
37.8439
37.855
2.41792
2.38989
2.35939
67.2232
67.204
67.1763
2.12199
2.09509
2.05525
37.8375
37.8482
37.8314
2.48811
2.47932
2.44131
2.06387
2.02771
1.99284
37.8128
37.8172
37.832
38.9228
38.9344
38.933
1.94215
1.89747
1.86337
37.9814
37.9758
37.9967
2.26478
2.24744
2.2156
49.4163
49.4411
49.4417
40.9701
40.9706
40.981
39.2722
39.2827
39.2769
39.4496
39.44
39.4293
2.13374
2.10227
2.07926
2.02995
1.98611
1.95224
2.11488
2.07636
2.07784
2.37485
2.35324
2.31997
2.14481
2.10759
2.08932
52.8153
52.8469
52.8484
2.36458
2.35057
2.31114
43.342
43.3528
43.3574
2.09398
2.04955
2.03442
67.8974
67.8919
67.8773
39.5806
39.566
39.5533
2.17273
2.13114
2.08776
40.5956
40.6052
40.6056
52.8563
52.8822
52.9063
39.5038
39.499
39.488
2.95632
2.90655
2.8859
2.48799
2.45473
2.42502
52.5395
52.5481
52.571
3.07229
3.0602
3.01531
2.69653
2.6514
2.63146
3.16984
3.12597
3.09125
2.72581
2.7008
2.6612
2.88107
2.86883
2.82697
2.50382
2.46365
2.45959
41.703
41.7168
41.7145
59.9898
60.0055
59.9773
3.16905
3.1338
3.11723
41.921
41.9307
41.9274
2.44667
2.40191
2.37224
41.7531
41.7514
41.7608
3.41943
3.41643
3.38062
2.95732
2.91826
2.9078
3.30289
3.29515
3.2593
37.9244
37.9175
37.9068
3.00066
2.96366
2.92636
41.2896
41.2881
41.3063
2.33768
2.2987
2.29179
67.2979
67.3066
67.284
3.42098
3.38977
3.35556
39.0529
39.0519
39.0677
2.31438
2.27823
2.24404
2.74394
2.71744
2.679
43.7331
43.7326
43.747
41.6054
41.6212
41.6146
37.8204
37.8284
37.8258
41.683
41.684
41.6889
2.63325
2.59528
2.563
3.89358
3.86062
3.825
40.7336
40.7233
40.7235
3.44806
3.41154
3.36993
3.90907
3.88203
3.84963
3.07822
3.04693
2.99715
41.8728
41.8541
41.8464
41.0623
41.084
41.0891
38.9067
38.9027
38.9134
3.44579
3.41479
3.3741
37.4157
37.4216
37.4136
41.053
41.0488
41.064
41.6161
41.6275
41.6235
41.6786
41.6789
41.686
41.9571
41.9501
41.9395
41.8569
41.8384
41.8334
3.0372
2.99024
2.97089
41.1345
41.1486
41.1441
40.8921
40.9028
40.9184
3.26495
3.24471
3.20466
40.8753
40.8911
40.8912
39.0086
39.0021
39.0087
3.02571
2.98477
2.96071
41.586
41.5996
41.5966
3.35871
3.3425
3.30889
3.17586
3.14596
3.12211
3.48476
3.44899
3.40111
3.34038
3.29286
3.26699
3.80251
3.77282
3.73559
3.74306
3.7196
3.69685
40.6174
40.6154
40.6238
38.9669
38.9731
38.968
39.5817
39.5777
39.5657
41.5411
41.5544
41.5469
2.5161
2.49013
2.46901
40.7814
40.7892
40.7979
2.25973
2.23437
2.22899
39.0769
39.07
39.0727
40.7495
40.7583
40.7705
39.041
39.0456
39.0384
2.27248
2.24484
2.21966
41.3775
41.3854
41.3949
39.57
39.5822
39.587
2.48694
2.44931
2.41806
40.6255
40.6339
40.6426
2.64635
2.63158
2.59836
40.4372
40.4497
40.4627
2.49774
2.47105
2.45104
2.72639
2.70535
2.6709
41.0251
41.0187
41.0302
41.2401
41.2461
41.2598
2.61523
2.59857
2.58244
39.1581
39.1517
39.1541
40.2409
40.2539
40.2677
2.75924
2.74893
2.72064
40.8757
40.8895
40.888
39.1219
39.1281
39.1202
2.4808
2.45054
2.44142
2.53423
2.50116
2.46819
39.7327
39.7244
39.7137
40.2478
40.2476
40.2607
2.53855
2.50968
2.5123
40.9193
40.9161
40.9254
41.0942
41.0797
41.0817
39.2535
39.2479
39.2505
40.1092
40.1223
40.1219
2.6142
2.60372
2.57274
2.65544
2.63653
2.60354
39.9894
39.9987
40.0054
2.40054
2.36385
2.33837
39.1993
39.2073
39.2007
40.8121
40.8238
40.8202
67.387
67.3453
67.3193
2.84625
2.80016
2.7646
41.1303
41.1232
41.109
2.94086
2.90128
2.8553
39.834
39.8268
39.8178
40.0169
40.0045
39.9922
39.8595
39.8696
39.8832
2.5393
2.5118
2.48611
39.2774
39.2737
39.2775
40.1344
40.1331
40.1428
40.9
40.8962
40.9062
41.043
41.0468
41.0366
40.7996
40.7942
40.7852
40.1574
40.1478
40.1372
39.8746
39.8744
39.8853
40.0008
40.0097
40.0072
2.81738
2.78653
2.74816
2.73716
2.69104
2.64878
3.19046
3.16359
3.13218
40.9686
40.978
40.9741
40.7971
40.8071
40.8213
3.63225
3.60962
3.60584
2.98687
2.95134
2.93101
3.21561
3.18611
3.14348
3.22942
3.22875
3.19617
2.89817
2.85342
2.82867
3.1388
3.11855
3.08034
37.5327
37.5328
37.5348
2.96103
2.91879
2.88819
39.4799
39.4742
39.458
3.74227
3.7146
3.69141
40.3447
40.3348
40.3354
3.2204
3.19109
3.15581
40.016
40.0139
40.0227
43.3126
43.3101
43.3221
3.10825
3.06489
3.02678
3.59001
3.56748
3.53921
3.56526
3.53885
3.52761
3.62549
3.60495
3.57609
4.06426
4.02993
3.99279
3.66456
3.6508
3.61223
3.3753
3.33848
3.31406
67.7591
67.7724
67.7665
39.7431
39.7354
39.7438
3.99458
3.95153
3.91173
4.40325
4.36888
4.33002
39.9138
39.9224
39.9158
39.6635
39.6638
39.6728
40.6653
40.6634
40.6754
40.3376
40.3398
40.3278
3.87609
3.84265
3.81218
40.6501
40.661
40.6739
3.6462
3.62348
3.58667
39.6767
39.6779
39.6659
40.4935
40.4823
40.4711
40.8217
40.8136
40.8165
3.52757
3.53226
3.48533
39.5126
39.502
39.4949
2.81887
2.79598
2.76139
40.9413
40.9316
40.9241
2.72816
2.69212
2.66874
40.4849
40.4837
40.4956
40.4937
40.5063
40.5157
4.3187
4.2851
4.24568
41.0219
41.0138
41.0065
67.5571
67.5875
67.5716
3.94203
3.94616
3.89622
43.4989
43.5013
43.5134
3.37064
3.33171
3.28076
39.5333
39.5443
39.5567
51.0994
51.1514
51.1679
4.32848
4.29232
4.25202
40.7656
40.7818
40.7809
40.5637
40.5685
40.582
4.3784
4.37158
4.32747
39.7176
39.7331
39.7357
3.89714
3.86374
3.82038
3.31985
3.27822
3.23383
40.9806
40.9851
40.9788
40.6014
40.6098
40.621
41.0564
41.0655
41.0686
39.426
39.4142
39.4112
39.7724
39.7683
39.7725
3.7943
3.75547
3.71721
4.12657
4.10539
4.06554
40.3375
40.3222
40.3083
39.5111
39.5081
39.4923
3.89506
3.84807
3.8127
39.7242
39.7303
39.7411
40.6521
40.6623
40.6687
40.5602
40.5658
40.5843
4.40061
4.37232
4.33567
39.916
39.9215
39.9341
39.3532
39.3375
39.3313
40.6635
40.6755
40.6823
39.4043
39.3974
39.3823
40.0383
40.0341
40.0192
39.2806
39.2647
39.2578
39.3169
39.3113
39.2969
39.9434
39.9411
39.948
39.8899
39.8702
39.8642
3.98467
3.94852
3.9333
39.7509
39.7417
39.7419
4.59011
4.56338
4.53831
4.07187
4.03683
3.98899
39.1997
39.1864
39.1819
4.71792
4.70178
4.6738
40.068
40.0744
40.089
4.3522
4.3188
4.28258
40.0918
40.0881
40.1004
4.19302
4.1735
4.13513
3.93586
3.88533
3.85393
4.19973
4.17356
4.12676
39.2553
39.2502
39.2365
3.94448
3.89462
3.85723
4.3121
4.2874
4.25755
40.7455
40.7338
40.7426
4.311
4.29029
4.26715
40.426
40.4246
40.4374
39.5218
39.5298
39.5246
2.64018
2.6307
2.61063
40.5683
40.576
40.588
2.50581
2.48636
2.48096
39.7518
39.7383
39.7281
39.1454
39.1318
39.1279
39.7293
39.7159
39.7098
42.8532
42.8689
42.884
40.9731
40.9698
40.9883
3.22667
3.19486
3.17022
3.24922
3.20919
3.18527
3.45668
3.43297
3.40276
3.4204
3.40902
3.37872
3.20044
3.16429
3.14562
39.8187
39.8129
39.8036
39.1812
39.1721
39.1793
3.41402
3.38906
3.35334
3.24636
3.21358
3.19644
2.76147
2.73793
2.70186
39.3358
39.3273
39.319
64.0128
64.0136
64.0317
21.6306
21.6425
21.64
3.2403
3.20663
3.18991
63.6501
63.6556
63.6749
22.6864
22.6963
22.7011
63.8015
63.8024
63.8175
2.85863
2.81668
2.78456
3.65706
3.64633
3.61861
67.6863
67.6791
67.6912
2.86097
2.82605
2.78874
3.60098
3.57728
3.58523
41.3412
41.3402
41.3539
41.1329
41.1173
41.125
63.647
63.6735
63.6731
3.37718
3.36204
3.33394
63.6427
63.6417
63.6628
3.29762
3.27822
3.24003
3.14773
3.1159
3.09941
3.09493
3.05953
3.03708
3.49326
3.46136
3.44097
39.7559
39.7433
39.7342
40.5739
40.5708
40.5829
39.304
39.2923
39.285
39.3715
39.3666
39.3715
3.2529
3.233
3.20621
39.5027
39.4852
39.4778
3.37134
3.35605
3.33043
41.4186
41.4248
41.4315
68.0586
68.0695
68.0637
3.30387
3.2772
3.2563
3.48825
3.46651
3.43562
63.3827
63.4114
63.4081
67.8334
67.8344
67.8529
59.3167
59.3158
59.3578
37.8538
37.8498
37.859
3.85936
3.83194
3.80209
39.5788
39.5701
39.5574
67.54
67.5761
67.564
38.7966
38.8112
38.8089
3.25643
3.2363
3.21656
3.67295
3.6377
3.60045
4.15699
4.13139
4.11001
41.3401
41.3529
41.3697
3.85507
3.82903
3.81635
50.7907
50.8289
50.8789
42.8049
42.8105
42.8338
22.5064
22.505
22.537
67.7628
67.7578
67.7686
63.7507
63.7947
63.7946
22.6423
22.6507
22.6401
3.60103
3.60661
3.57685
68.0471
68.0437
68.0543
3.86133
3.84515
3.85095
4.25623
4.22368
4.20421
4.53652
4.51808
4.49216
3.93788
3.91796
3.87507
3.85828
3.84452
3.80168
4.37057
4.34069
4.31248
4.66756
4.64438
4.61067
4.28722
4.24734
4.21616
68.2052
68.197
68.2045
3.85344
3.82433
3.80376
4.59681
4.55883
4.51854
41.1153
41.1184
41.1015
4.42193
4.41256
4.37492
4.1451
4.11235
4.10648
39.5101
39.4934
39.4922
67.6102
67.5883
67.5521
23.1148
23.1088
23.1065
4.9551
4.92596
4.89093
4.15458
4.12846
4.09865
50.8357
50.8578
50.8928
4.94092
4.90651
4.86517
59.5754
59.5996
59.6075
63.0755
63.0689
63.0815
59.351
59.3494
59.3929
5.26441
5.24408
5.21843
40.609
40.6249
40.6236
43.0784
43.0975
43.0943
39.004
38.9907
38.9777
40.7224
40.7298
40.746
4.37511
4.34242
4.32073
4.00238
3.97589
3.97684
42.8694
42.6177
42.3889
40.7472
40.7445
40.7547
4.77141
4.73559
4.70473
4.39093
4.36044
4.35873
4.68999
4.66357
4.63784
4.78146
4.75471
4.72107
5.09428
5.06916
5.03691
5.16103
5.16314
5.12543
4.82048
4.78393
4.77544
41.4256
41.4378
41.4428
38.4932
38.4896
38.5024
39.6311
39.6262
39.6189
40.0571
40.0496
39.6189
48.4091
48.3949
48.385
4.74274
4.69992
4.66911
4.95825
4.95432
4.91528
50.4432
50.477
50.5153
37.7517
37.7612
37.7597
5.07482
5.04685
5.01356
5.42769
5.40639
5.38326
4.9631
4.9484
4.91571
68.1669
68.1694
68.1617
58.7645
58.826
58.8437
68.2993
68.2905
68.2919
63.2812
63.3053
63.2971
41.3279
41.3292
41.3481
5.19612
5.16197
5.13182
4.77254
4.73871
4.70282
5.17463
5.13282
5.09921
5.37025
5.3531
5.31369
5.5194
5.51003
5.47566
39.6131
39.6014
39.5882
52.5546
52.5773
52.5995
40.6721
40.6692
40.6771
39.5427
39.5243
39.5166
5.01794
5.00673
4.97838
4.79057
4.75159
4.73445
39.6506
39.6445
39.6325
5.31902
5.29467
5.26893
4.87853
4.84429
4.79998
40.8865
40.8932
40.9116
4.78313
4.76107
4.72049
5.26334
5.24023
5.22657
5.48458
5.46251
5.44679
66.6375
66.6398
66.6602
5.48986
5.46583
5.43628
66.5536
66.5658
66.5758
3.99357
3.95539
3.93055
4.19033
4.17518
4.14588
3.98982
3.95474
3.93325
4.16867
4.14652
4.11339
41.4203
41.4323
41.4359
66.7788
66.7631
66.7547
3.9383
3.90686
3.88858
66.8539
66.867
66.8744
3.46134
3.44684
3.41818
4.09594
4.07723
4.0438
66.7404
66.7427
66.7573
66.5207
66.5388
66.5532
40.8064
40.8175
40.8429
3.87287
3.84324
3.81863
40.9725
40.9961
41.007
67.7459
67.7485
67.762
40.8544
40.8566
40.8753
4.01566
3.97658
3.95742
66.4603
66.4842
66.4957
4.1915
4.17525
4.14945
66.6944
66.7035
66.7287
41.5192
41.5273
41.5456
4.12386
4.10426
4.07749
66.7037
66.723
66.7236
3.77377
3.74378
3.73576
4.08886
4.09427
4.06654
66.6452
66.65
66.6745
63.9555
63.95
63.9576
66.3396
66.378
66.3923
66.6264
66.6374
66.653
41.2646
41.2839
41.3045
41.2974
41.3164
41.3307
3.72235
3.69645
3.69013
50.4714
50.496
50.5347
41.0464
41.0648
41.0862
66.477
66.4766
66.4918
41.0585
41.0549
41.0708
66.1543
66.147
66.17
43.2607
43.2671
43.2774
40.8764
40.8714
40.8854
3.91896
3.91334
3.88974
3.76737
3.74054
3.71046
4.18724
4.15584
4.12477
66.3854
66.4162
66.4435
66.399
66.4308
66.4327
66.5223
66.5286
66.5484
4.07818
4.05339
4.04662
4.38609
4.35638
4.34061
4.46167
4.44234
4.41599
66.6616
66.6792
66.6832
4.17222
4.14733
4.12426
66.0979
66.1036
66.1477
63.787
63.7851
63.7993
66.2546
66.2842
66.2954
4.05262
4.02214
3.99204
4.37542
4.34682
4.31758
4.72306
4.69116
4.66013
4.41588
4.39211
4.37231
65.7549
65.7986
65.8113
66.2315
66.2127
66.1919
3.67137
3.6352
3.60372
66.6283
66.6488
66.6572
66.7604
66.7726
66.7783
37.8674
37.8623
37.8733
66.6104
66.62
66.6329
52.5715
52.5684
52.5981
4.70298
4.67002
4.63976
4.35615
4.34122
4.31844
66.6662
66.6852
66.6948
3.87831
3.84435
3.80589
66.5281
66.5329
66.5543
5.13994
5.12636
5.10129
65.4268
65.4247
65.4612
4.35257
4.32142
4.28908
41.5047
41.5156
41.5292
4.96809
4.9449
4.9232
41.2609
41.2738
41.2902
66.0681
66.0836
66.0636
4.34065
4.30465
4.30296
4.77752
4.74314
4.71697
5.19477
5.17514
5.14307
63.845
63.8686
63.8641
66.7062
66.7126
66.7252
5.11767
5.08414
5.04956
4.76145
4.72193
4.68368
41.0764
41.1019
41.1091
65.6414
65.6666
65.6842
5.4625
5.44505
5.415
40.9954
41.0014
41.017
41.0688
41.0643
41.0758
65.0209
65.0296
65.0603
5.42216
5.39639
5.36825
65.5025
65.5349
65.5221
4.96891
4.92327
4.8915
66.5165
66.5359
66.5451
5.63536
5.6128
5.58905
40.9516
40.9746
40.9805
63.52
63.5563
63.5831
5.21218
5.19251
5.16527
4.46794
4.44196
4.40959
5.57617
5.54989
5.51938
5.90321
5.88624
5.86401
5.05987
5.01877
4.98786
40.8425
40.8485
40.8677
40.9322
40.9508
40.9601
63.4405
63.4627
63.5085
5.35736
5.34152
5.31248
5.19815
5.16817
5.14955
67.8968
67.8752
67.8558
5.55679
5.53614
5.5445
41.0772
41.0739
41.0772
5.39274
5.37437
5.33609
5.77486
5.77768
5.8029
41.1518
41.1639
41.1725
5.6976
5.67986
5.65383
5.50029
5.48072
5.46097
66.4408
66.4509
66.4699
5.9377
5.9354
5.9066
41.1041
41.1141
41.1304
5.50913
5.52786
5.54228
64.2647
64.2542
64.2687
64.5424
64.5608
64.5904
52.2586
52.2898
52.3116
64.963
64.9927
64.9901
64.51
64.5325
64.5747
66.5525
66.5659
66.5704
6.09164
6.06256
6.03463
5.79316
5.8069
5.83002
5.46023
5.47281
5.50017
52.2078
52.2264
52.2609
41.4683
41.4754
41.4909
41.2834
41.2792
41.2916
6.18002
6.178
6.15414
64.2068
64.2171
64.2365
5.6892
5.67895
5.6897
41.2819
41.2906
41.3134
41.4927
41.5146
41.5162
5.48622
5.45834
5.4387
5.85725
5.83458
5.82416
41.3273
41.3526
41.366
5.89492
5.87409
5.87358
64.194
64.2029
64.2622
63.895
63.9521
63.963
66.2838
66.3054
66.3147
5.61004
5.59629
5.57085
6.03542
6.00737
5.99191
67.8549
67.8624
67.8433
5.71263
5.69014
5.66005
41.2918
41.3109
41.3246
68.2204
68.2101
68.2116
41.1695
41.1672
41.1866
68.2476
68.2541
68.245
5.68783
5.65652
5.62571
63.2356
63.2772
63.2809
63.7221
63.7417
63.812
66.1809
66.1878
66.2043
41.2619
41.2708
41.2862
6.03575
6.01061
5.97928
5.96362
5.93815
5.91452
5.94603
5.92269
5.90108
6.17415
6.15189
6.11696
68.4105
68.4025
68.4063
66.2515
66.2647
66.2785
6.05466
6.04034
6.023
6.42811
6.40012
6.37015
63.038
63.0827
63.0724
62.6475
62.6633
62.6803
66.0642
66.0751
66.0943
66.1153
66.1286
66.1448
62.4816
62.4957
62.5724
62.8218
62.8354
62.8733
61.9534
62.0209
62.0243
4.57707
4.55014
4.53766
61.6769
61.6793
61.771
64.0997
64.0887
64.0932
68.2038
68.2183
68.1977
65.8939
65.9094
65.9293
41.533
41.5426
41.5399
63.5282
63.5571
63.5374
4.52506
4.4972
4.48449
4.59157
4.56657
4.53798
64.2607
64.2374
64.2292
68.499
68.4913
68.4954
66.1945
66.2155
66.2121
4.73964
4.70651
4.67613
5.00211
4.97084
4.93619
51.9072
51.9269
51.9605
4.89483
4.88161
4.85028
4.67823
4.64439
4.62102
4.91558
4.8941
4.86314
4.87387
4.85029
4.83052
4.72677
4.71682
4.68439
5.20145
5.16745
5.13979
65.9292
65.9448
65.9659
62.8326
62.8848
62.9478
63.3358
63.3219
63.2993
49.9401
49.9705
49.9604
62.6567
62.7315
62.7348
62.4362
62.469
62.4963
4.86242
4.86638
4.82543
64.1315
64.1183
64.0919
5.15918
5.13589
5.14737
68.3637
68.3694
68.3601
4.88774
4.86109
4.83394
4.85934
4.86413
4.83361
4.46606
4.43739
4.44784
4.3293
4.29566
4.26912
4.66077
4.63691
4.60878
5.28757
5.26665
5.24258
5.00615
4.97113
4.96298
68.5653
68.5544
68.5527
63.801
63.7449
63.7374
4.94935
4.92378
4.88892
65.6834
65.7038
65.7192
4.61742
4.58932
4.56406
4.7795
4.74902
4.71187
4.48219
4.4675
4.4313
62.2137
62.2253
62.2907
63.5364
63.4889
63.4734
61.3705
61.4528
61.4545
5.21198
5.1813
5.14766
4.85195
4.82018
4.79638
63.6942
63.6512
63.6375
63.4074
63.3915
63.3947
5.23069
5.23121
5.19224
65.4836
65.4824
65.5055
58.3996
58.4098
58.4603
5.15982
5.12264
5.09494
65.5166
65.5356
65.5545
57.835
57.8826
57.904
5.5218
5.49447
5.46553
5.11054
5.10917
5.07577
4.79243
4.76129
4.76305
4.74763
4.71436
4.68176
5.11302
5.08114
5.05034
5.47805
5.44706
5.41571
5.03705
5.00617
4.9812
43.3543
43.3641
43.3719
37.8175
37.8156
37.8225
5.67452
5.63952
5.61934
68.4406
68.4488
68.4389
4.77454
4.73886
4.70304
5.24797
5.21302
5.17351
62.338
62.3589
62.3893
5.22704
5.18374
5.1447
5.66236
5.62506
5.58937
5.89809
5.88928
5.86214
5.68917
5.65811
5.64515
68.553
68.5551
68.5345
5.74464
5.73484
5.70106
63.6782
63.6223
63.5902
5.80321
5.7798
5.7531
6.1459
6.11316
6.08127
68.7966
68.7865
68.7921
68.5306
68.5196
68.5105
60.683
60.6978
60.7782
5.79829
5.7726
5.74112
62.4423
62.4389
62.4561
6.03835
6.01003
5.99235
6.25908
6.25425
6.22233
57.416
57.4266
57.4783
37.7511
37.758
37.7542
5.66301
5.63061
5.60241
63.723
63.676
63.6806
64.1647
64.1565
64.1239
6.16897
6.1397
6.11197
64.8309
64.8501
64.8729
5.95153
5.92764
5.89832
65.059
65.0904
65.0927
62.3727
62.4124
62.4295
6.62715
6.60182
6.58591
6.51988
6.49137
6.46505
25.8176
25.8297
25.8233
64.8404
64.8551
64.8768
5.80806
5.77919
5.75289
37.8635
37.8588
37.8636
64.5462
64.505
64.476
64.562
64.5395
64.5365
6.64468
6.64617
6.61323
68.5829
68.5756
68.5794
64.6089
64.6189
64.6435
6.10677
6.07733
6.04942
6.09128
6.06497
6.07036
6.34102
6.31725
6.30941
64.0504
64.0499
64.0289
37.8299
37.8372
37.8292
49.4709
49.5001
49.5002
62.1271
62.1275
62.1428
38.6624
38.4437
38.1879
6.39224
6.37094
6.34334
6.78003
6.75433
6.72365
6.92337
6.92681
6.89174
6.40956
6.38949
6.38672
61.3878
61.4109
61.4652
43.0979
43.0952
43.1085
6.66767
6.65009
6.62281
6.53313
6.50504
6.489
64.8282
64.8016
64.787
62.1549
62.1511
62.1734
63.5642
63.5833
63.6034
6.45513
6.43237
6.40758
64.8024
64.7764
64.7818
6.68675
6.68078
6.65989
64.5039
64.5101
64.5333
6.01629
6.02174
6.05406
61.3353
61.3695
61.3987
63.848
63.8629
63.8571
63.0262
63.0209
63.0371
51.8823
51.9107
51.9305
63.4975
63.4236
63.3977
60.7136
60.6927
60.72
42.7042
42.7139
42.7326
6.26414
6.28224
6.28539
69.0456
69.0711
69.0582
68.7347
68.7498
68.7392
6.29523
6.29038
6.31568
63.4244
63.4412
63.4632
6.44563
6.42981
6.42833
61.8106
61.8567
61.8692
64.617
64.629
64.647
63.911
63.8991
63.9151
6.64224
6.61579
6.60101
6.50867
6.48108
6.45406
6.7836
6.7597
6.72984
34.9669
34.9421
34.8954
68.6431
68.6314
68.619
6.71175
6.68373
6.66361
6.68107
6.65471
6.66021
60.754
60.7866
60.8669
61.0091
61.082
61.1002
6.70727
6.68789
6.66034
68.5846
68.5919
68.5807
6.12666
6.12626
6.0995
6.58746
6.54849
6.52533
69.0667
69.0641
69.0783
6.84407
6.82664
6.79677
63.6867
63.7085
63.6972
45.5593
45.5302
45.3831
63.7575
63.7224
63.6848
52.2534
52.2914
52.2916
68.7224
68.7183
68.7231
64.1441
64.1671
64.1569
57.0625
57.0888
57.0904
5.47776
5.44519
5.42052
5.39425
5.35911
5.3495
5.66104
5.65418
5.62416
5.4426
5.41448
5.38045
5.71461
5.67779
5.64659
69.3011
69.2898
69.3031
61.4955
61.4802
61.4853
64.3777
64.3722
64.3867
5.62249
5.58489
5.55138
5.25486
5.22728
5.19579
64.0906
64.0467
63.9979
64.0856
64.1142
64.1112
65.0585
65.0375
65.0182
42.9339
42.9491
42.9444
5.48304
5.46053
5.43231
61.5994
61.6707
61.6705
61.7723
61.7741
61.8055
37.6866
37.69
37.7025
5.6773
5.65657
5.62643
60.852
60.8735
60.9342
64.9875
64.9644
64.967
56.8576
56.8559
56.8747
5.61371
5.59299
5.56718
5.39025
5.36058
5.3367
60.6399
60.6193
60.6765
69.1915
69.2109
69.2068
5.22589
5.20085
5.20017
5.5632
5.56546
5.53756
5.49276
5.47475
5.44413
5.17451
5.14228
5.11429
60.4457
60.4321
60.4617
61.24
61.2668
61.2178
39.1044
39.1113
39.0986
5.54705
5.51224
5.4953
5.43653
5.40846
5.38152
56.802
56.8239
56.8497
5.80168
5.76162
5.72593
5.89007
5.86093
5.82551
5.82751
5.79599
5.75656
5.72488
5.68673
5.65802
39.1481
39.1306
39.1155
5.62613
5.60177
5.60834
63.8922
63.9009
63.9196
49.6689
49.6664
49.6805
61.6194
61.6628
61.7187
63.9223
63.9322
63.954
63.7694
63.7486
63.7108
6.07534
6.04502
6.01029
49.1835
49.1991
49.2227
6.01887
5.98309
5.95068
6.38509
6.35414
6.32304
5.77497
5.76073
5.73524
5.56695
5.53357
5.52682
5.52725
5.49351
5.46627
6.10321
6.07724
6.05218
37.4945
37.5098
37.5014
56.6438
56.6857
56.6841
65.1859
65.1644
65.1432
63.6236
63.6134
63.6282
49.1727
49.1929
49.2195
5.64273
5.61376
5.57999
6.04675
6.01899
5.99101
5.81976
5.78347
5.74197
6.32006
6.28215
6.25132
6.0455
6.01859
5.98977
6.40361
6.37996
6.34456
6.57849
6.56124
6.5316
6.4026
6.36622
6.34018
65.0993
65.0713
65.0717
56.636
56.6525
56.683
6.65781
6.63676
6.60494
6.28407
6.25117
6.22924
67.7137
67.6739
67.6491
6.55395