/*--------------------------------*- C++ -*----------------------------------*\
| =========                 |                                                 |
| \\      /  F ield         | OpenFOAM: The Open Source CFD Toolbox           |
|  \\    /   O peration     | Version:  v2012                                 |
|   \\  /    A nd           | Website:  www.openfoam.com                      |
|    \\/     M anipulation  |                                                 |
\*---------------------------------------------------------------------------*/
FoamFile
{
    version     2.0;
    format      ascii;
    class       volScalarField;
    location    "0";
    object      Plift2;
}
// * * * * * * * * * * * * * * * * * * * * * * * * * * * * * * * * * * * * * //

dimensions      [0 2 -2 0 0 0 0];


internalField   nonuniform List<scalar> 
228296
(
66.7418
66.7433
66.774
41.9184
41.9266
41.9174
38.7606
38.7596
38.7689
0.781339
0.756615
0.714864
67.2299
67.2476
67.24
53.0034
53.0006
53.0245
66.9025
66.9003
66.9282
65.3844
65.3826
65.3483
65.3826
65.3699
65.342
41.6032
41.6151
41.6277
41.763
41.7703
41.7757
66.8259
66.8224
66.8309
66.747
66.7558
66.7463
66.8779
66.8695
66.8739
67.1358
67.1346
67.1567
60.0595
60.0559
60.0743
0.367249
0.394763
0.354767
66.8218
66.8275
66.8174
64.9078
64.893
64.9204
41.4283
41.4369
41.4518
38.9531
38.9252
38.9186
0.67036
0.652767
0.610618
66.51
66.5124
66.5289
64.5668
64.6171
64.6295
51.5515
51.5411
51.5655
0.441747
0.465682
0.421677
41.7028
41.7008
41.7106
66.7705
66.7619
66.7709
66.6525
66.6674
66.669
66.6095
66.6046
66.62
42.1402
42.1481
42.1441
64.8445
64.8824
64.886
64.2721
64.3161
64.3216
37.6777
37.6815
37.6757
51.455
51.4427
51.4722
65.7606
65.7369
65.7283
0.756918
0.803998
0.813618
51.5332
51.5238
51.5271
0.366056
0.392545
0.353771
41.4591
41.4546
41.4693
45.549
45.5468
45.5658
66.8705
66.8443
66.8268
44.145
44.1586
44.1541
66.5029
66.4984
66.5115
0.929717
0.974557
0.974633
41.6701
41.6759
41.6855
0.497668
0.504782
0.564101
66.6863
66.6974
66.694
67.3217
67.3081
67.2856
9.3086
9.29634
9.2814
67.2387
67.2131
67.2055
66.4437
66.4618
66.4577
51.2047
51.2006
51.2319
9.66978
9.65808
9.64474
0.408728
0.415091
0.476724
39.4423
39.4612
39.4604
0.868221
0.859639
0.907642
65.7967
65.7914
65.7631
42.2281
42.2202
42.2132
51.1858
51.2207
51.2214
66.1442
66.1187
66.1068
63.4365
63.4325
63.4609
67.0067
66.9997
67.0069
66.9547
66.9446
66.94
67.4214
67.4165
67.4049
59.8986
59.921
59.905
63.9579
63.9589
64.0151
66.3496
66.3687
66.365
63.3261
63.3188
63.3753
67.4228
67.406
67.3899
66.3851
66.3849
66.3968
41.3134
41.3299
41.3298
41.3498
41.3482
41.362
67.7239
67.6999
67.6723
0.349988
0.371215
0.338062
0.664378
0.640092
0.653779
0.453513
0.495583
0.462275
0.655992
0.699926
0.715345
0.29695
0.332966
0.2909
63.8115
63.7679
63.7746
63.8557
63.8466
63.8052
67.002
67.0132
67.0153
0.700025
0.737404
0.753088
66.9063
66.9111
66.925
0.407858
0.419506
0.470825
13.2993
13.2941
13.3115
23.1879
23.1882
23.2106
59.1919
59.2045
59.2557
0.378619
0.346131
0.325247
67.8123
67.807
67.7875
0.297081
0.314987
0.270586
62.8674
62.9518
62.9583
41.1988
41.2111
41.2102
38.4257
38.4322
38.4481
0.341813
0.349251
0.396954
22.8064
22.8144
22.8409
37.7026
37.7036
37.6927
66.7252
66.7012
66.674
38.5606
38.5602
38.5698
0.355591
0.365699
0.414292
67.3292
67.3161
67.3311
41.8192
41.815
41.8206
14.0824
14.0725
14.0744
66.5777
66.5505
66.5396
66.6182
66.6279
66.6206
67.1972
67.211
67.1973
66.2084
66.2257
66.2412
64.106
64.0987
64.0931
21.5084
21.5291
21.523
66.9922
67.0069
67.0121
67.4517
67.4394
67.4395
17.7898
17.7789
17.791
1.09558
1.11904
1.09694
0.304208
0.322824
0.367214
40.8985
40.8948
40.9069
66.8972
66.9006
66.9175
0.309428
0.328281
0.287499
41.6449
41.6397
41.6336
50.8337
50.8285
50.8574
63.5316
63.5761
63.6099
0.607258
0.589731
0.543109
63.244
63.2183
63.2806
53.92
53.9447
53.9379
41.6074
41.6124
41.6081
63.6535
63.6963
63.707
67.1535
67.1381
67.1301
66.9196
66.9095
66.9281
0.589364
0.573759
0.595059
0.349042
0.373522
0.340644
65.9766
65.9863
66.0058
0.718475
0.692221
0.706187
67.1541
67.1879
67.1789
15.8168
15.8338
15.8268
63.3774
63.3722
63.419
66.0283
66.0214
66.041
40.9278
40.9248
40.935
0.408778
0.438979
0.407035
0.720971
0.696427
0.706267
40.818
40.828
40.8246
62.713
62.7945
62.8013
65.7594
65.7843
65.7874
67.4131
67.4173
67.4
0.354986
0.387438
0.350897
0.690858
0.674541
0.693148
16.9315
16.9228
16.9272
0.432931
0.460955
0.429835
0.719432
0.701569
0.71539
53.5451
53.5592
53.5838
65.7155
65.7163
65.7393
66.8929
66.8933
66.9102
65.4047
65.4378
65.4516
0.354265
0.389642
0.347561
62.1282
62.1604
62.2518
53.5005
53.5158
53.5057
16.4577
16.4482
16.4399
0.736216
0.71069
0.731313
66.9675
66.9486
66.9502
66.9634
66.9655
66.9532
40.8216
40.8284
40.821
0.356511
0.380315
0.346819
53.0963
53.0917
53.117
66.7197
66.7113
66.7199
65.2844
65.2794
65.3084
0.405142
0.440286
0.389968
0.868703
0.842504
0.856071
0.615222
0.653902
0.609922
1.35196
1.32085
1.29024
0.74025
0.719368
0.676276
66.7114
66.7105
66.7217
0.49123
0.447506
0.425316
63.1687
63.1509
63.1785
0.618902
0.650897
0.596409
0.97512
0.952158
0.968796
62.5359
62.5164
62.5829
0.815923
0.790702
0.808528
1.39007
1.34286
1.31203
66.838
66.8496
66.848
0.587447
0.528105
0.481569
0.977741
0.949871
0.965151
1.59436
1.57459
1.53083
65.3146
65.3118
65.3328
65.0465
65.0741
65.0794
63.0442
63.0746
63.0584
1.30296
1.25794
1.2234
0.869497
0.835711
0.850196
62.2827
62.3313
62.3704
6.64772
6.64758
6.61923
6.10865
6.13212
6.14751
50.8391
50.8699
50.872
23.2834
23.2763
23.277
1.47507
1.43396
1.40482
0.491689
0.512354
0.461522
62.0075
62.0755
62.053
67.1742
67.1629
67.1656
65.01
65.0089
65.0314
50.4529
50.4894
50.4874
1.85253
1.82726
1.78176
0.987636
0.952549
0.961421
0.854196
0.794264
0.797965
64.8441
64.8612
64.8578
41.3166
41.3099
41.3019
63.2573
63.2596
63.2811
54.0402
54.0383
54.0533
61.8072
61.834
61.9105
1.67909
1.64302
1.61413
1.96905
1.93846
1.88862
64.8708
64.8676
64.8843
1.47664
1.45097
1.41073
64.3608
64.3605
64.3853
66.9163
66.9249
66.9244
64.6632
64.6841
64.6792
1.34941
1.36326
1.33014
66.8058
66.8059
66.8202
0.782026
0.809862
0.810299
0.326441
0.349191
0.30203
64.5019
64.5338
64.5301
62.933
62.9396
62.9741
0.64102
0.613932
0.574596
62.7236
62.7814
62.7569
62.0632
62.0516
62.0864
1.17488
1.13589
1.1362
1.20962
1.17247
1.18148
1.66016
1.65277
1.60862
67.2014
67.1959
67.2081
1.58796
1.53694
1.54028
64.7231
64.7192
64.7348
1.63208
1.61845
1.63311
1.30417
1.26866
1.24467
1.50667
1.48296
1.44229
64.1071
64.1204
64.148
62.8699
62.8961
62.8659
1.23232
1.18802
1.15771
62.6335
62.6718
62.6397
67.1016
67.1127
67.1063
62.1189
62.1358
62.1273
1.4076
1.39152
1.35498
1.24837
1.22394
1.20224
66.8062
66.8247
66.8292
1.43796
1.41541
1.37393
1.17101
1.12139
1.09541
64.2414
64.2262
64.2223
0.602614
0.580044
0.53805
40.8362
40.8461
40.8427
63.1325
63.121
63.1352
62.9494
62.9688
62.933
62.149
62.1859
62.1993
1.37998
1.36121
1.32546
63.6119
63.6075
63.6347
63.5637
63.5706
63.5954
60.1071
60.0897
60.1008
66.872
66.8646
66.8749
67.2053
67.2044
67.1908
0.708254
0.684623
0.686593
63.3319
63.3661
63.3654
37.2722
37.28
37.2869
46.5058
46.5368
46.5063
66.7889
66.7927
66.8088
37.0318
37.0396
37.0585
1.24763
1.2035
1.17684
67.5492
67.5367
67.5304
1.32531
1.31224
1.28173
63.3666
63.3603
63.3789
40.8506
40.8492
40.8599
62.9376
62.9869
62.9965
62.9834
63.0207
63.0147
1.19757
1.16353
1.1252
35.503
35.492
35.4794
1.56976
1.56928
1.52877
1.18036
1.1413
1.11037
1.57485
1.55117
1.51995
66.94
66.9499
66.9667
1.10802
1.06509
1.04612
1.39913
1.37952
1.33895
41.1902
41.2013
41.2022
67.171
67.1721
67.1539
1.18487
1.14578
1.12376
41.6141
41.6078
41.6007
41.666
41.6564
41.6491
1.55367
1.5165
1.47395
66.9483
66.9416
66.9285
1.41248
1.39686
1.35767
41.8758
41.8615
41.8536
41.8867
41.8849
41.8716
41.7461
41.7628
41.766
41.5601
41.5644
41.5822
1.18138
1.14897
1.13982
1.55151
1.54314
1.49752
1.20547
1.16486
1.14883
40.608
40.6044
40.6124
1.43595
1.41108
1.36171
1.56452
1.53305
1.47983
41.7281
41.7273
41.7441
41.9124
41.9005
41.9066
67.0774
67.0638
67.064
41.9572
41.9407
41.9239
1.18875
1.14482
1.11688
66.6794
66.6663
66.6898
1.42074
1.36941
1.32384
42.062
42.0521
42.0604
2.25687
2.2431
2.20699
1.86866
1.82628
1.79004
1.86063
1.82341
1.77799
41.8899
41.8901
41.8771
2.01796
2.00796
1.96338
39.3598
39.3566
39.3478
2.47486
2.43718
2.40512
1.62206
1.57111
1.55771
1.82621
1.8094
1.75077
1.85663
1.81436
1.76607
2.62621
2.6141
2.5741
41.8689
41.8633
41.8662
1.47422
1.43406
1.4258
1.71857
1.69937
1.64713
41.424
41.4243
41.4174
2.22967
2.18474
2.15848
39.3978
39.4068
39.407
1.73597
1.71056
1.65929
39.3122
39.3187
39.3113
2.45531
2.43139
2.38365
41.4652
41.4606
41.4665
1.50887
1.45694
1.43798
39.3633
39.3604
39.3684
41.3609
41.3675
41.3805
1.68662
1.65897
1.61331
39.3135
39.3168
39.3281
39.173
39.1839
39.1904
39.1577
39.1521
39.16
1.4398
1.38035
1.33745
39.069
39.074
39.0906
41.4078
41.4179
41.4232
2.21591
2.16493
2.12479
2.58913
2.56936
2.53205
41.1158
41.1093
41.1133
1.7946
1.7672
1.71867
67.3836
67.3556
67.3344
41.6823
41.6975
41.702
2.46479
2.42088
2.38013
40.7245
40.7352
40.7347
1.59347
1.54487
1.51809
2.02313
1.99396
1.94726
67.6391
67.623
67.6074
43.5838
43.5747
43.5774
41.0669
41.061
41.0654
44.0238
44.0244
44.0448
2.90578
2.87573
2.84303
41.6785
41.6884
41.6978
17.5697
17.5868
17.5839
2.91105
2.87918
2.84435
2.36833
2.33222
2.28944
1.88748
1.84366
1.80765
43.1599
43.166
43.1815
41.2302
41.2242
41.2305
41.0411
41.0516
41.0558
41.1541
41.1541
41.1639
2.72682
2.71761
2.67147
2.51169
2.4716
2.45263
40.6103
40.6028
40.6037
37.4371
37.4305
37.4338
19.7912
19.6281
20.7099
2.37692
2.36951
2.32428
2.06724
2.01954
2.00341
41.2656
41.2753
41.2783
2.42929
2.40701
2.3626
53.2097
53.2319
53.2584
37.9315
37.9421
37.9412
2.44548
2.40036
2.3742
2.68382
2.66659
2.6219
33.7861
33.463
32.9985
3.39947
3.35097
3.30944
1.90558
1.87813
1.86766
1.8955
1.86797
1.85741
2.12657
2.10075
2.08306
39.2981
39.305
39.3009
1.54025
1.52224
1.49384
40.6002
40.6014
40.5927
1.94051
1.93456
1.8971
40.7347
40.7277
40.7279
1.5116
1.51648
1.48207
67.5581
67.5643
67.545
37.2825
37.2785
37.2877
39.1291
39.1422
39.1449
2.0858
2.06188
2.0416
49.5695
49.5648
49.5783
1.86447
1.83467
1.80884
39.0659
39.0766
39.0723
41.8571
41.852
41.8414
49.8257
49.8485
49.839
37.8607
37.8517
37.8429
2.02254
1.99233
1.98448
41.9804
41.9746
41.9769
41.3717
41.3867
41.3879
1.6234
1.59434
1.56109
2.05839
2.05134
2.01214
1.62564
1.59516
1.58943
2.09616
2.06968
2.03301
41.2394
41.2436
41.2574
2.10862
2.09752
2.06172
38.0793
38.0907
38.0788
1.69091
1.65675
1.61975
1.65751
1.61522
1.57644
75.7657
75.7365
75.7256
1.79376
1.75505
1.72295
1.92349
1.90455
1.87796
46.8381
46.8255
46.8524
37.8673
37.8652
37.8762
2.42263
2.39454
2.36399
67.2357
67.2165
67.1887
2.1261
2.09915
2.05922
37.8583
37.869
37.8522
2.49293
2.48413
2.44603
2.0679
2.03167
1.99673
37.8343
37.8386
37.8534
38.9394
38.9509
38.9495
1.9459
1.90114
1.86697
38.0014
37.9958
38.0167
2.26919
2.2518
2.21989
49.3824
49.4072
49.4078
40.976
40.9764
40.9868
39.287
39.2974
39.2916
39.4635
39.454
39.4433
2.13787
2.10633
2.08326
2.03391
1.98998
1.95604
2.11898
2.08038
2.08186
2.3795
2.35786
2.32451
2.14898
2.11168
2.09337
52.7871
52.8188
52.8203
2.36919
2.35515
2.31563
43.3338
43.3445
43.3491
2.09803
2.0535
2.03833
67.9103
67.9048
67.8902
39.5937
39.5792
39.5665
2.17691
2.13525
2.09178
40.6036
40.6132
40.6136
52.8288
52.8549
52.8791
39.5175
39.5127
39.5017
2.96202
2.91214
2.89146
2.49282
2.45949
2.42971
52.5098
52.5185
52.5415
3.07823
3.06613
3.02114
2.70174
2.65652
2.63654
3.17597
3.13203
3.09725
2.73113
2.70609
2.66641
2.88663
2.87437
2.83242
2.50863
2.46836
2.46429
41.7047
41.7184
41.7162
59.9923
60.008
59.9797
3.17518
3.13987
3.12327
41.9213
41.9311
41.9278
2.45135
2.4065
2.37676
41.7545
41.7528
41.7622
3.42604
3.42302
3.38714
2.96304
2.9239
2.91342
3.30931
3.30155
3.26562
37.9453
37.9384
37.9278
3.00648
2.96941
2.93204
41.2941
41.2926
41.3107
2.34217
2.3031
2.29619
67.3106
67.3193
67.2967
3.42761
3.39634
3.36206
39.0687
39.0677
39.0835
2.31884
2.28262
2.24836
2.74927
2.72271
2.68419
43.7222
43.7217
43.736
41.6075
41.6232
41.6166
37.8418
37.8497
37.8471
41.6846
41.6856
41.6904
2.63836
2.60031
2.56797
3.90115
3.86812
3.83244
40.7408
40.7307
40.7308
3.45473
3.41815
3.37646
3.91667
3.88957
3.85709
3.08418
3.05283
3.00295
41.8732
41.8546
41.847
41.0681
41.0898
41.0948
38.9233
38.9193
38.93
3.45247
3.4214
3.38063
37.4382
37.444
37.4362
41.0589
41.0547
41.0698
41.6181
41.6295
41.6255
41.6802
41.6806
41.6876
41.957
41.95
41.9396
41.8575
41.839
41.8341
3.04307
2.99601
2.97661
41.14
41.154
41.1496
40.8987
40.9094
40.9249
3.27128
3.25101
3.21086
40.8821
40.8979
40.8979
39.0248
39.0183
39.0249
3.03153
2.99049
2.96638
41.5882
41.6018
41.5987
3.36523
3.34898
3.31529
3.182
3.15201
3.1281
3.49155
3.45573
3.40775
3.34682
3.29919
3.27328
3.80988
3.78013
3.74281
3.75033
3.7268
3.70398
40.6253
40.6234
40.6317
38.9833
38.9894
38.9843
39.5949
39.5909
39.579
41.5436
41.5568
41.5493
2.52097
2.49494
2.47378
40.7886
40.7963
40.805
2.26408
2.23867
2.23328
39.0928
39.0859
39.0886
40.7569
40.7656
40.7778
39.057
39.0615
39.0544
2.27691
2.24923
2.22399
41.3808
41.3886
41.3981
39.5833
39.5954
39.6002
2.49178
2.45408
2.42278
40.6336
40.6419
40.6506
2.65146
2.63666
2.60337
40.4464
40.4587
40.4717
2.50258
2.47584
2.45579
2.73173
2.71066
2.67613
41.0306
41.0242
41.0356
41.2442
41.2502
41.2637
2.62031
2.6036
2.58744
39.1736
39.1672
39.1696
40.251
40.264
40.2777
2.7646
2.75427
2.72591
40.882
40.8957
40.8942
39.1375
39.1437
39.1359
2.48561
2.45529
2.44615
2.53916
2.50603
2.473
39.7452
39.7369
39.7263
40.2579
40.2576
40.2707
2.54346
2.51452
2.51713
40.9253
40.9222
40.9314
41.0992
41.0848
41.0867
39.2685
39.263
39.2655
40.12
40.133
40.1327
2.61928
2.60877
2.57774
2.6606
2.64165
2.60861
40.0007
40.0101
40.0167
2.40522
2.36846
2.34294
39.2145
39.2226
39.216
40.8187
40.8305
40.8268
67.4
67.3582
67.3322
2.85179
2.80562
2.76999
41.1351
41.128
41.1139
2.94657
2.90693
2.86086
39.846
39.8388
39.8298
40.0278
40.0155
40.0033
39.8714
39.8815
39.895
2.54424
2.51667
2.49093
39.2922
39.2886
39.2924
40.145
40.1438
40.1534
40.9062
40.9024
40.9124
41.0483
41.0521
41.042
40.8066
40.8011
40.7922
40.1675
40.158
40.1475
39.8865
39.8863
39.8972
40.0121
40.0209
40.0184
2.82287
2.79197
2.75353
2.7425
2.6963
2.65397
3.19664
3.1697
3.13824
40.9744
40.9837
40.9799
40.8038
40.8138
40.8279
3.63928
3.61659
3.61281
2.99265
2.95704
2.93667
3.22187
3.19233
3.14963
3.23568
3.235
3.20234
2.90378
2.85895
2.83417
3.14488
3.12458
3.0863
37.5546
37.5548
37.5568
2.96678
2.92445
2.8938
39.4937
39.488
39.4719
3.74951
3.72176
3.69853
40.3539
40.3441
40.3447
3.22665
3.1973
3.16194
40.0272
40.0251
40.0338
43.3046
43.302
43.314
3.11428
3.07085
3.03268
3.59694
3.57435
3.54602
3.57216
3.54568
3.53441
3.63248
3.61189
3.58296
4.07215
4.03776
4.00054
3.67168
3.6579
3.61926
3.38188
3.34497
3.3205
67.7717
67.785
67.7791
39.7556
39.748
39.7563
4.00232
3.95919
3.91932
4.41181
4.37738
4.33844
39.9256
39.934
39.9276
39.6764
39.6767
39.6857
40.6728
40.6709
40.6828
40.3468
40.349
40.337
3.88362
3.85012
3.81959
40.6577
40.6685
40.6813
3.65325
3.63049
3.59361
39.6896
39.6907
39.6788
40.502
40.4907
40.4797
40.8284
40.8203
40.8232
3.53438
3.53908
3.49208
39.5262
39.5157
39.5086
2.82436
2.80142
2.76675
40.9474
40.9378
40.9303
2.73346
2.69736
2.67391
40.4933
40.4921
40.5039
40.5021
40.5146
40.524
4.3271
4.29344
4.25395
41.0275
41.0195
41.0122
67.5702
67.6007
67.5847
3.94965
3.95379
3.90376
43.4894
43.4919
43.5038
3.37718
3.33818
3.28713
39.5469
39.5579
39.5703
51.0707
51.1228
51.1393
4.3369
4.30067
4.2603
40.7725
40.7887
40.7878
40.5717
40.5764
40.5899
4.38687
4.38005
4.33586
39.7303
39.7457
39.7483
3.9047
3.87124
3.82779
3.32629
3.28457
3.24011
40.9865
40.991
40.9848
40.6091
40.6174
40.6285
41.0619
41.071
41.0741
39.4401
39.4283
39.4254
39.7848
39.7807
39.7849
3.80163
3.76271
3.72438
4.13458
4.11337
4.07342
40.3468
40.3315
40.3177
39.5247
39.5218
39.5061
3.90255
3.85547
3.82004
39.7367
39.7428
39.7536
40.6596
40.6697
40.6761
40.5681
40.5737
40.5921
4.40915
4.3808
4.34408
39.9277
39.9332
39.9457
39.3676
39.352
39.3458
40.6709
40.6828
40.6896
39.4185
39.4116
39.3966
40.0492
40.045
40.0302
39.2954
39.2796
39.2728
39.3316
39.326
39.3116
39.955
39.9527
39.9596
39.9015
39.8819
39.8759
3.99237
3.95615
3.9409
39.7633
39.7541
39.7543
4.59901
4.57222
4.5471
4.07982
4.04473
3.99681
39.2149
39.2016
39.1972
4.72708
4.7109
4.68285
40.0789
40.0853
40.0998
4.36063
4.32716
4.29088
40.1027
40.099
40.1113
4.20116
4.1816
4.14314
3.94349
3.89286
3.8614
4.20788
4.18167
4.13478
39.2702
39.2651
39.2515
3.95213
3.90219
3.86473
4.32045
4.29569
4.26578
40.7525
40.7408
40.7495
4.31936
4.2986
4.2754
40.4353
40.4339
40.4466
39.5354
39.5434
39.5381
2.64531
2.63581
2.61569
40.5768
40.5844
40.5963
2.51069
2.49119
2.48576
39.7641
39.7506
39.7405
39.1609
39.1473
39.1434
39.7418
39.7285
39.7224
42.848
42.8635
42.8785
40.9788
40.9755
40.9939
3.23291
3.20103
3.17634
3.25552
3.21541
3.19145
3.46343
3.43968
3.40941
3.42703
3.41563
3.38526
3.20668
3.17045
3.15175
39.8307
39.825
39.8157
39.1965
39.1874
39.1946
3.42066
3.39567
3.35989
3.25265
3.2198
3.20263
2.76688
2.74333
2.70719
39.3504
39.3419
39.3336
64.0202
64.021
64.0391
21.668
21.6799
21.6774
3.24658
3.21284
3.1961
63.6573
63.6628
63.6821
22.7251
22.7349
22.7397
63.8088
63.8097
63.8248
2.86421
2.82221
2.79001
3.66413
3.65338
3.62559
67.6996
67.6924
67.7045
2.86654
2.83156
2.79417
3.60796
3.5842
3.59217
41.3448
41.3438
41.3574
41.1377
41.1221
41.1298
63.6542
63.6807
63.6803
3.38375
3.36858
3.34042
63.6499
63.649
63.6701
3.30402
3.2846
3.24634
3.15385
3.12195
3.10543
3.10094
3.06547
3.04298
3.50003
3.46805
3.44762
39.7682
39.7557
39.7466
40.5823
40.5793
40.5912
39.3187
39.3071
39.2998
39.3858
39.381
39.3859
3.25919
3.23923
3.21238
39.5163
39.4989
39.4915
3.37788
3.36254
3.33688
41.4218
41.4279
41.4344
68.0717
68.0827
68.0768
3.31026
3.28354
3.2626
3.49505
3.47326
3.44231
63.3897
63.4185
63.4151
67.8461
67.847
67.8656
59.3185
59.3177
59.3597
37.875
37.8711
37.8802
3.86684
3.83938
3.80946
39.5921
39.5834
39.5708
67.5531
67.5893
67.5771
38.8131
38.8277
38.8254
3.26274
3.24257
3.22277
3.68008
3.64477
3.60745
4.16506
4.13941
4.11801
41.3437
41.3565
41.3733
3.86258
3.8365
3.82377
50.7614
50.7995
50.8496
42.8
42.8055
42.8287
22.5447
22.5433
22.5753
67.7763
67.7713
67.7821
63.7579
63.802
63.8019
22.6809
22.6892
22.6787
3.60801
3.6136
3.58377
68.0602
68.0568
68.0673
3.86884
3.85261
3.85843
4.2645
4.23189
4.2124
4.54532
4.52685
4.50088
3.94555
3.92561
3.88263
3.86575
3.85198
3.80907
4.37907
4.34913
4.32087
4.67663
4.6534
4.61962
4.29557
4.25562
4.22438
68.2185
68.2103
68.2179
3.86094
3.83178
3.81115
4.60572
4.56767
4.5273
41.1201
41.1232
41.1064
4.43052
4.42112
4.38341
4.15313
4.1203
4.11443
39.5237
39.5071
39.5058
67.6234
67.6015
67.5653
23.1537
23.1476
23.1453
4.96472
4.93553
4.90043
4.16263
4.13646
4.10659
50.8063
50.8283
50.8634
4.95049
4.91602
4.87461
59.5773
59.6015
59.6095
63.0825
63.0758
63.0885
59.3521
59.3506
59.3941
5.27462
5.25424
5.22853
40.6173
40.6331
40.6319
43.0717
43.0908
43.0876
39.0196
39.0064
38.9934
40.7299
40.7373
40.7534
4.38362
4.35088
4.32913
4.01011
3.98356
3.9845
43.8715
43.623
43.3968
40.7547
40.752
40.7621
4.78064
4.74476
4.71385
4.39941
4.36885
4.36713
4.69911
4.67265
4.64686
4.79074
4.76393
4.73022
5.10414
5.07898
5.04667
5.17101
5.17312
5.13533
4.82982
4.79319
4.78467
41.4288
41.4409
41.4459
38.511
38.5075
38.5202
39.644
39.6392
39.6319
38.4427
38.4412
38.0106
48.3757
48.3615
48.3517
4.75193
4.70903
4.67818
4.96785
4.96391
4.92479
50.413
50.4469
50.4852
37.7735
37.7829
37.7814
5.08465
5.05664
5.02329
5.43817
5.41682
5.39365
4.97273
4.95802
4.92525
68.1801
68.1826
68.1749
58.7646
58.8262
58.8439
68.3128
68.3039
68.3053
63.2882
63.3123
63.3041
41.3316
41.3328
41.3516
5.20623
5.17201
5.14182
4.78184
4.74796
4.712
5.18467
5.14279
5.10914
5.38063
5.36346
5.32398
5.53007
5.52069
5.48625
39.6262
39.6145
39.6014
52.526
52.5488
52.5711
40.68
40.6771
40.685
39.5561
39.5377
39.53
5.02765
5.01641
4.988
4.79984
4.76078
4.74361
39.6634
39.6574
39.6455
5.32931
5.30491
5.2791
4.88799
4.85369
4.8093
40.8932
40.8998
40.9182
4.7924
4.77033
4.72967
5.27348
5.25031
5.23663
5.49523
5.47312
5.45735
66.6482
66.6504
66.6709
5.50052
5.47645
5.44684
66.564
66.5762
66.5862
4.00131
3.96305
3.93817
4.19847
4.1833
4.15393
3.99757
3.96242
3.94089
4.17677
4.15459
4.12138
41.4235
41.4354
41.439
66.7896
66.7739
66.7654
3.94592
3.91441
3.89608
66.865
66.8782
66.8856
3.46804
3.4535
3.42478
4.1039
4.08516
4.05165
66.7513
66.7536
66.7682
66.531
66.5491
66.5636
40.8136
40.8247
40.85
3.88039
3.85069
3.82603
40.9788
41.0024
41.0132
67.7594
67.762
67.7755
40.8613
40.8635
40.882
4.02346
3.98432
3.96512
66.4707
66.4947
66.5062
4.19962
4.18335
4.15749
66.7053
66.7144
66.7397
41.5218
41.5299
41.5482
4.13187
4.11223
4.0854
66.7147
66.7341
66.7347
3.78109
3.75103
3.743
4.09678
4.10219
4.0744
66.6561
66.6609
66.6855
63.9628
63.9573
63.9649
66.3501
66.3885
66.4028
66.6368
66.6478
66.6634
41.2688
41.2881
41.3085
41.3015
41.3204
41.3346
3.72955
3.70358
3.69725
50.441
50.4656
50.5044
41.0518
41.0702
41.0914
66.4872
66.4868
66.502
41.0639
41.0603
41.0761
66.1646
66.1573
66.1804
43.2528
43.259
43.2693
40.8833
40.8783
40.8922
3.92656
3.92093
3.89726
3.7747
3.74782
3.71768
4.19535
4.16389
4.13276
66.3961
66.4269
66.4542
66.4097
66.4415
66.4434
66.5325
66.5389
66.5587
4.08607
4.06122
4.05443
4.39463
4.36487
4.34905
4.47033
4.45095
4.42456
66.672
66.6897
66.6937
4.1803
4.15536
4.13225
66.1082
66.1139
66.1581
63.7942
63.7923
63.8065
66.2652
66.2947
66.306
4.06051
4.02998
3.99982
4.38394
4.35529
4.326
4.73224
4.70029
4.66921
4.42446
4.40065
4.38081
65.7646
65.8084
65.8212
66.2422
66.2233
66.2024
3.67848
3.64223
3.61069
66.6387
66.6592
66.6677
66.7709
66.7832
66.7889
37.8886
37.8836
37.8945
66.6207
66.6304
66.6433
52.5435
52.5403
52.5701
4.71211
4.6791
4.64879
4.36461
4.34964
4.32682
66.6766
66.6956
66.7053
3.88585
3.85182
3.8133
66.5383
66.5431
66.5646
5.14993
5.13632
5.11118
65.4362
65.4341
65.4707
4.36101
4.3298
4.29739
41.5075
41.5183
41.5318
4.9777
4.95444
4.93272
41.2652
41.2779
41.2943
66.0784
66.094
66.0739
4.34903
4.31294
4.31125
4.7868
4.75234
4.72611
5.20486
5.1852
5.15306
63.8522
63.8758
63.8714
66.7167
66.7231
66.7357
5.12759
5.094
5.05936
4.77067
4.73107
4.69276
41.0819
41.1073
41.1145
65.6511
65.6763
65.6939
5.47306
5.45557
5.42546
41.0012
41.0072
41.0228
41.0743
41.0698
41.0813
65.0298
65.0386
65.0693
5.43265
5.40684
5.37865
65.512
65.5445
65.5317
4.97856
4.93283
4.901
66.5267
66.5461
66.5553
5.6463
5.62372
5.59991
40.9579
40.9808
40.9867
63.5271
63.5634
63.5902
5.22228
5.20257
5.17527
4.47666
4.45064
4.41819
5.58698
5.56065
5.5301
5.91462
5.89761
5.87534
5.06966
5.02848
4.99753
40.8494
40.8553
40.8745
40.9388
40.9572
40.9666
63.4476
63.4697
63.5155
5.36773
5.35186
5.32276
5.20822
5.17817
5.15951
67.9106
67.889
67.8696
5.56754
5.54685
5.55522
41.0829
41.0795
41.0828
5.40317
5.38478
5.34644
5.78604
5.78887
5.81413
41.1569
41.169
41.1775
5.70864
5.69087
5.66478
5.51092
5.49129
5.47151
66.4509
66.461
66.48
5.94917
5.94687
5.91801
41.1096
41.1195
41.1357
5.51983
5.5386
5.55306
64.2726
64.2621
64.2766
64.5507
64.5691
64.5988
52.2277
52.259
52.2809
64.9718
65.0016
64.999
64.5182
64.5407
64.583
66.5627
66.5762
66.5806
6.10344
6.07431
6.04633
5.80443
5.81822
5.84138
5.47081
5.48339
5.51081
52.1774
52.1961
52.2307
41.4715
41.4785
41.494
41.2877
41.2835
41.2957
6.19199
6.18996
6.16604
64.2146
64.2249
64.2444
5.70021
5.68993
5.70071
41.2862
41.2948
41.3176
41.496
41.5177
41.5193
5.49684
5.46889
5.44924
5.86854
5.84582
5.83538
41.3314
41.3566
41.3699
5.90632
5.88544
5.88492
64.2018
64.2107
64.2701
63.9023
63.9595
63.9704
66.2936
66.3152
66.3246
5.62094
5.60717
5.58167
6.04712
6.01902
6.00354
67.8686
67.8761
67.8569
5.72374
5.70121
5.67106
41.2962
41.3152
41.3288
68.2348
68.2244
68.2259
41.1745
41.1721
41.1914
68.2609
68.2674
68.2583
5.69888
5.66751
5.63665
63.242
63.2836
63.2874
63.7292
63.7489
63.8192
66.1907
66.1975
66.2141
41.2665
41.2753
41.2906
6.04745
6.02226
5.99088
5.97517
5.94964
5.92598
5.95752
5.93413
5.91248
6.18612
6.16384
6.12884
68.4242
68.4161
68.4199
66.2614
66.2745
66.2883
6.06639
6.05204
6.03464
6.44055
6.41252
6.38249
63.0441
63.0889
63.0786
62.6531
62.6689
62.686
66.0737
66.0847
66.1039
66.1249
66.1383
66.1545
62.4869
62.5011
62.5778
62.8285
62.8422
62.8801
61.9578
62.0254
62.0289
4.58593
4.55894
4.54644
61.6809
61.6833
61.7751
64.107
64.0961
64.1005
68.2181
68.2326
68.2119
65.9032
65.9187
65.9387
41.536
41.5456
41.5429
63.5347
63.5637
63.5439
4.53383
4.5059
4.49317
4.60048
4.57544
4.54679
64.2683
64.2449
64.2367
68.5128
68.5051
68.5092
66.2042
66.2253
66.2218
4.74882
4.71561
4.68518
5.01183
4.98052
4.94579
51.8746
51.8945
51.9281
4.9043
4.89107
4.85965
4.68729
4.65338
4.62996
4.92511
4.90359
4.87256
4.88331
4.85967
4.83985
4.73594
4.72597
4.69347
5.21153
5.17746
5.14974
65.9386
65.9542
65.9754
62.8383
62.8905
62.9536
63.3418
63.3278
63.3052
49.9076
49.938
49.928
62.6618
62.7367
62.74
62.4411
62.4739
62.5013
4.87186
4.87583
4.8348
64.1386
64.1254
64.099
5.16916
5.14582
5.15732
68.3773
68.3829
68.3736
4.89725
4.87055
4.84335
4.86879
4.87358
4.843
4.47473
4.446
4.45648
4.3377
4.304
4.27742
4.66981
4.6459
4.61771
5.29781
5.27685
5.25272
5.01582
4.98074
4.97257
68.5803
68.5693
68.5676
63.8078
63.7517
63.7442
4.95893
4.93332
4.89839
65.6925
65.7129
65.7283
4.62637
4.59822
4.5729
4.7888
4.75827
4.72105
4.4909
4.47619
4.43992
62.2181
62.2296
62.2952
63.5427
63.4952
63.4797
61.3736
61.456
61.4577
5.22206
5.19133
5.15763
4.86136
4.82953
4.80568
63.7007
63.6577
63.644
63.4135
63.3975
63.4007
5.24083
5.24135
5.20231
65.4925
65.4912
65.5144
58.3987
58.409
58.4595
5.16979
5.13254
5.10479
65.5255
65.5445
65.5634
57.8328
57.8805
57.902
5.53249
5.50511
5.47611
5.12042
5.11905
5.08559
4.80172
4.77052
4.77227
4.75685
4.72351
4.69086
5.12294
5.09099
5.06013
5.48867
5.45762
5.42621
5.04684
5.0159
4.99087
43.3457
43.3555
43.3633
37.839
37.8371
37.8439
5.6855
5.65043
5.63021
68.4543
68.4625
68.4525
4.78384
4.7481
4.71222
5.25815
5.22313
5.18355
62.3445
62.3654
62.3958
5.23721
5.19384
5.15472
5.67331
5.63595
5.6002
5.90948
5.90064
5.87343
5.70016
5.66903
5.65605
68.568
68.5701
68.5495
5.75574
5.74592
5.71207
63.6847
63.6288
63.5967
5.81445
5.79101
5.76425
6.15782
6.12502
6.09307
68.812
68.802
68.8075
68.5444
68.5334
68.5243
60.6851
60.7
60.7804
5.80951
5.78378
5.75224
62.4488
62.4454
62.4626
6.05003
6.02165
6.00395
6.27115
6.2663
6.23432
57.4126
57.4234
57.4751
37.7728
37.7797
37.776
5.67397
5.6415
5.61327
63.7296
63.6825
63.6872
64.1719
64.1636
64.131
6.18095
6.15164
6.12385
64.839
64.8581
64.881
5.96303
5.93909
5.90971
65.0673
65.0987
65.101
62.379
62.4187
62.4358
6.63999
6.61462
6.59867
6.53247
6.5039
6.47755
25.8587
25.8708
25.8645
64.8485
64.8632
64.8849
5.8193
5.79037
5.76402
37.8848
37.8801
37.8849
64.554
64.5127
64.4837
64.5697
64.5472
64.5442
6.65755
6.65904
6.62604
68.5968
68.5895
68.5933
64.6167
64.6267
64.6513
6.11863
6.08915
6.06118
6.10307
6.07671
6.08211
6.35327
6.32944
6.32159
64.0577
64.0572
64.0362
37.8513
37.8586
37.8506
49.438
49.4672
49.4673
62.1332
62.1336
62.1489
39.8769
39.6548
39.397
6.40462
6.38328
6.35563
6.79314
6.76739
6.73666
6.93676
6.94021
6.90509
6.42196
6.40184
6.39907
61.3907
61.4138
61.4682
43.0911
43.0884
43.1016
6.68057
6.66297
6.63563
6.54577
6.51762
6.50156
64.8363
64.8097
64.795
62.1609
62.1571
62.1794
63.5711
63.5902
63.6104
6.46765
6.44485
6.42
64.8105
64.7844
64.7898
6.69967
6.69369
6.67275
64.5115
64.5178
64.541
6.02794
6.03341
6.06578
61.3383
61.3725
61.4018
63.8552
63.8701
63.8643
63.0316
63.0263
63.0425
51.8508
51.8792
51.8992
63.5038
63.4298
63.4039
60.7154
60.6945
60.722
42.6999
42.7095
42.7281
6.27628
6.29443
6.29758
69.0615
69.0872
69.0742
68.75
68.7652
68.7545
6.30742
6.30256
6.32791
63.4313
63.4481
63.4701
6.45809
6.44221
6.44073
61.8163
61.8624
61.8749
64.6247
64.6368
64.6548
63.9181
63.9063
63.9223
6.65509
6.62857
6.61376
6.52128
6.49363
6.46657
6.79675
6.77282
6.74289
36.5914
36.569
36.5228
68.6572
68.6455
68.633
6.72475
6.69669
6.67653
6.69398
6.66756
6.67306
60.7558
60.7884
60.8689
61.0113
61.0843
61.1026
6.72024
6.70083
6.67322
68.5986
68.6059
68.5947
6.13852
6.13811
6.11129
6.60022
6.56119
6.53799
69.0827
69.08
69.0943
6.85728
6.83983
6.8099
63.6937
63.7155
63.7042
46.2378
46.2115
46.0668
63.7641
63.729
63.6913
52.2241
52.2623
52.2625
68.7366
68.7326
68.7373
64.1513
64.1743
64.1641
57.0581
57.0844
57.0862
5.48837
5.45573
5.43102
5.4047
5.36948
5.35986
5.67198
5.66511
5.63501
5.45315
5.42497
5.39088
5.72569
5.68883
5.65756
69.3175
69.3063
69.3195
61.5006
61.4853
61.4904
64.3852
64.3796
64.3942
5.6334
5.59573
5.56216
5.26506
5.23742
5.20586
64.0977
64.0537
64.005
64.0927
64.1213
64.1183
65.0668
65.0458
65.0266
42.9282
42.9433
42.9386
5.49366
5.4711
5.44282
61.6025
61.6738
61.6736
61.7778
61.7796
61.811
37.708
37.7115
37.724
5.68832
5.66755
5.63736
60.854
60.8756
60.9364
64.9958
64.9726
64.9752
56.8519
56.8502
56.8691
5.62459
5.60383
5.57796
5.40068
5.37095
5.34703
60.6415
60.621
60.6782
69.2076
69.2271
69.2229
5.23601
5.21092
5.21024
5.57396
5.57623
5.54828
5.5034
5.48535
5.45466
5.18453
5.15225
5.12421
60.4494
60.4358
60.4655
61.2446
61.2715
61.2225
39.1197
39.1266
39.1139
5.55781
5.52295
5.50597
5.44705
5.41892
5.39193
56.7965
56.8185
56.8444
5.81291
5.77278
5.73703
5.90147
5.87227
5.83679
5.8388
5.80722
5.76771
5.73597
5.69774
5.66897
39.1632
39.1457
39.1307
5.63699
5.61258
5.61915
63.8991
63.9078
63.9265
49.6356
49.6331
49.6472
61.6226
61.6661
61.722
63.9292
63.9391
63.961
63.776
63.7552
63.7173
6.08708
6.05671
6.02192
49.1508
49.1663
49.1899
6.0305
5.99465
5.96218
6.39742
6.36642
6.33524
5.78613
5.77186
5.7463
5.5777
5.54425
5.53748
5.53793
5.50412
5.47684
6.11504
6.08901
6.0639
37.5167
37.532
37.5236
56.6369
56.6789
56.6774
65.1944
65.1729
65.1516
63.6301
63.6199
63.6347
49.1394
49.1596
49.1862
5.65365
5.62463
5.59079
6.05843
6.03062
6.00259
5.83105
5.79471
5.75313
6.33226
6.29427
6.26338
6.05717
6.03021
6.00133
6.41598
6.39229
6.35682
6.5912
6.57391
6.5442
6.41498
6.37854
6.35245
65.1076
65.0796
65.08
56.6289
56.6455
56.676
6.67064
6.64957
6.61769
6.29621
6.26325
6.24127
67.7272
67.6874
67.6625
6.56659
6.53456
6.50837