/*--------------------------------*- C++ -*----------------------------------*\
| =========                 |                                                 |
| \\      /  F ield         | OpenFOAM: The Open Source CFD Toolbox           |
|  \\    /   O peration     | Version:  v2012                                 |
|   \\  /    A nd           | Website:  www.openfoam.com                      |
|    \\/     M anipulation  |                                                 |
\*---------------------------------------------------------------------------*/
FoamFile
{
    version     2.0;
    format      ascii;
    class       volScalarField;
    location    "0";
    object      Plift1;
}
// * * * * * * * * * * * * * * * * * * * * * * * * * * * * * * * * * * * * * //

dimensions      [0 2 -2 0 0 0 0];


internalField   nonuniform List<scalar> 
228296
(
66.6302
66.6318
66.6624
41.7977
41.8059
41.7967
38.6463
38.6454
38.6546
0.779001
0.75434
0.712737
67.119
67.1366
67.129
52.8789
52.876
52.9
66.7911
66.7889
66.8168
65.2715
65.2698
65.2354
65.2698
65.257
65.2291
41.4831
41.495
41.5075
41.6425
41.6498
41.6552
66.7147
66.7113
66.7198
66.6358
66.6445
66.6351
66.7668
66.7584
66.7628
67.0247
67.0236
67.0457
59.941
59.9374
59.9558
0.366163
0.393606
0.353729
66.7106
66.7164
66.7062
64.7943
64.7796
64.8071
41.3084
41.317
41.3319
38.8383
38.8105
38.8039
0.668313
0.650766
0.608762
66.3985
66.4009
66.4174
64.4529
64.5033
64.5157
51.4264
51.416
51.4404
0.440465
0.464342
0.420466
41.5824
41.5804
41.5902
66.6593
66.6506
66.6597
66.5411
66.556
66.5577
66.4981
66.4932
66.5086
42.019
42.0269
42.0228
64.7309
64.7688
64.7724
64.1579
64.2019
64.2075
37.566
37.5698
37.5639
51.3299
51.3176
51.3471
65.6481
65.6244
65.6158
0.754712
0.801664
0.811251
51.4079
51.3985
51.4018
0.364983
0.391399
0.35274
41.3392
41.3347
41.3493
45.4243
45.4222
45.4411
66.7591
66.7328
66.7153
44.0211
44.0347
44.0302
66.3913
66.3868
66.3999
0.927029
0.97175
0.97182
41.5498
41.5556
41.5652
0.496239
0.503332
0.562484
66.5749
66.586
66.5827
67.2109
67.1972
67.1747
9.28069
9.26847
9.25357
67.1278
67.1021
67.0946
66.332
66.3501
66.3461
51.0794
51.0752
51.1066
9.64082
9.62917
9.61589
0.407522
0.413877
0.475347
39.3265
39.3453
39.3446
0.865634
0.857066
0.904952
65.6843
65.6789
65.6506
42.1067
42.0989
42.0918
51.0605
51.0954
51.0961
66.0322
66.0066
65.9947
63.3215
63.3174
63.3459
66.8958
66.8887
66.896
66.8437
66.8336
66.829
67.3108
67.3058
67.2942
59.78
59.8023
59.7864
63.8434
63.8445
63.9007
66.2378
66.2569
66.2532
63.211
63.2037
63.2603
67.3121
67.2953
67.2792
66.2733
66.2731
66.2851
41.1937
41.2102
41.2101
41.2301
41.2284
41.2422
67.6137
67.5896
67.562
0.348989
0.370158
0.337102
0.662508
0.638294
0.651927
0.452195
0.494143
0.460908
0.654146
0.697978
0.713328
0.29614
0.33207
0.290117
63.6969
63.6532
63.6599
63.741
63.732
63.6906
66.8911
66.9023
66.9045
0.698062
0.735351
0.750991
66.7953
66.8001
66.8139
0.406714
0.418343
0.469536
13.2594
13.2542
13.2715
23.1179
23.1181
23.1406
59.0728
59.0854
59.1366
0.377547
0.345171
0.324345
67.7021
67.6968
67.6773
0.296245
0.314096
0.269814
62.7519
62.8363
62.8428
41.0793
41.0916
41.0907
38.312
38.3185
38.3344
0.340816
0.348225
0.395793
22.7375
22.7455
22.7719
37.5908
37.5918
37.5809
66.6139
66.5899
66.5627
38.4467
38.4463
38.4558
0.354549
0.364629
0.41309
67.2184
67.2053
67.2203
41.6985
41.6943
41.6999
14.0401
14.0303
14.0321
66.4662
66.4389
66.4281
66.5067
66.5164
66.5092
67.0862
67.1001
67.0864
66.0963
66.1137
66.1293
63.9917
63.9844
63.9788
21.4435
21.4641
21.4581
66.8813
66.896
66.9012
67.3411
67.3287
67.3289
17.7362
17.7254
17.7374
1.0923
1.1157
1.09367
0.303333
0.321902
0.366165
40.7795
40.7758
40.7879
66.7862
66.7896
66.8065
0.308492
0.327284
0.286616
41.5244
41.5192
41.5132
50.7082
50.7029
50.7319
63.4167
63.4613
63.4951
0.605415
0.587943
0.541447
63.1288
63.1032
63.1655
53.7961
53.8208
53.814
41.4871
41.492
41.4877
63.5387
63.5814
63.5922
67.0427
67.0273
67.0192
66.8082
66.7981
66.8167
0.5876
0.572059
0.593296
0.348011
0.372426
0.33965
65.8643
65.874
65.8936
0.716438
0.690272
0.704204
67.043
67.0767
67.0678
15.7692
15.7862
15.7792
63.2624
63.2572
63.3041
65.9161
65.9092
65.9288
40.8088
40.8058
40.816
0.407626
0.437751
0.405901
0.718753
0.694306
0.704122
40.6992
40.7092
40.7058
62.5973
62.6789
62.6857
65.6468
65.6718
65.6748
67.3025
67.3066
67.2893
0.353993
0.386367
0.349929
0.688867
0.672609
0.691151
16.8805
16.8718
16.8762
0.431527
0.459497
0.42849
0.717131
0.699349
0.713127
53.4209
53.4351
53.4596
65.6029
65.6036
65.6267
66.7818
66.7822
66.7992
65.2917
65.3248
65.3386
0.353296
0.38859
0.346623
62.0121
62.0444
62.1358
53.3763
53.3916
53.3815
16.4082
16.3987
16.3905
0.734207
0.708765
0.729335
66.8564
66.8376
66.8391
66.8523
66.8544
66.8422
40.7027
40.7096
40.7021
0.355447
0.379183
0.345786
52.9718
52.9672
52.9925
66.6084
66.6
66.6085
65.1712
65.1662
65.1953
0.404024
0.439084
0.3889
0.866245
0.840155
0.853709
0.613364
0.651965
0.608125
1.3479
1.31688
1.28641
0.738017
0.717195
0.674241
66.6001
66.5992
66.6104
0.489807
0.446229
0.424108
63.0534
63.0356
63.0632
0.617062
0.648972
0.594644
0.972176
0.949305
0.965899
62.4202
62.4007
62.4672
0.813522
0.788402
0.806173
1.38586
1.33879
1.30805
66.7269
66.7384
66.7369
0.585794
0.526634
0.48022
0.974916
0.947141
0.962377
1.58954
1.56983
1.52622
65.2015
65.1987
65.2198
64.933
64.9607
64.9659
62.9287
62.9591
62.9429
1.299
1.25414
1.21969
0.867003
0.833333
0.847774
62.1666
62.2153
62.2544
6.62769
6.62755
6.59928
6.09019
6.1136
6.12895
50.7136
50.7443
50.7465
23.2132
23.2061
23.2068
1.47064
1.42966
1.4006
0.490272
0.510876
0.460185
61.8913
61.9593
61.9368
67.0634
67.0521
67.0547
64.8964
64.8954
64.9179
50.3272
50.3637
50.3617
1.84698
1.82178
1.77643
0.984847
0.949859
0.958721
0.851703
0.79188
0.795601
64.7303
64.7475
64.744
41.1968
41.1901
41.1821
63.142
63.1443
63.1658
53.9251
53.9233
53.9383
61.6908
61.7176
61.7941
1.67409
1.63815
1.60935
1.96316
1.93263
1.88294
64.7571
64.7538
64.7706
1.47224
1.44667
1.40656
64.2466
64.2463
64.271
66.8052
66.8138
66.8134
64.5492
64.5702
64.5653
1.34541
1.35923
1.32623
66.6946
66.6947
66.709
0.779773
0.807518
0.80791
0.325477
0.348157
0.301129
64.3879
64.4198
64.4161
62.8174
62.824
62.8585
0.639097
0.612063
0.57286
62.6079
62.6657
62.6412
61.9469
61.9353
61.9701
1.17142
1.13256
1.13287
1.20598
1.16897
1.17795
1.65519
1.64782
1.60381
67.0906
67.0851
67.0973
1.58321
1.53234
1.5357
64.6092
64.6053
64.621
1.62719
1.61362
1.62824
1.30029
1.26488
1.24093
1.50214
1.47847
1.43792
63.9926
64.0059
64.0336
62.7543
62.7805
62.7502
1.22865
1.1845
1.15427
62.5176
62.556
62.5239
66.9906
67.0017
66.9954
62.0026
62.0195
62.0111
1.40344
1.38739
1.35098
1.24475
1.2204
1.19876
66.695
66.7134
66.718
1.43376
1.41126
1.36991
1.16755
1.11804
1.09214
64.127
64.1118
64.1079
0.600861
0.578336
0.536464
40.7174
40.7272
40.7238
63.0172
63.0057
63.0199
62.834
62.8534
62.8175
62.0326
62.0697
62.083
1.37591
1.35721
1.32157
63.4969
63.4924
63.5197
63.4486
63.4555
63.4803
59.9886
59.9712
59.9822
66.7609
66.7534
66.7638
67.0946
67.0937
67.0801
0.706258
0.682711
0.684687
63.2167
63.2509
63.2502
37.1615
37.1693
37.1762
46.3843
46.4154
46.385
66.6777
66.6815
66.6976
36.9217
36.9295
36.9483
1.24391
1.19989
1.17333
67.4388
67.4263
67.42
1.32129
1.30826
1.27786
63.2515
63.2451
63.2638
40.7317
40.7303
40.741
62.8221
62.8714
62.881
62.8679
62.9052
62.8993
1.19398
1.16006
1.12187
35.397
35.3861
35.3735
1.56512
1.56464
1.52425
1.17684
1.13788
1.10706
1.57017
1.54657
1.51544
66.8288
66.8387
66.8556
1.10465
1.06184
1.04293
1.39489
1.37535
1.33489
41.0706
41.0817
41.0826
67.0602
67.0613
67.0431
1.18121
1.14222
1.12027
41.494
41.4878
41.4807
41.5458
41.5363
41.529
1.549
1.51192
1.46948
66.8373
66.8305
66.8174
1.40829
1.39272
1.35366
41.7553
41.7411
41.7332
41.7662
41.7644
41.7512
41.6259
41.6426
41.6458
41.4402
41.4444
41.4622
1.17774
1.14541
1.1363
1.54683
1.53849
1.493
1.20197
1.16148
1.14551
40.4896
40.4859
40.494
1.43158
1.40677
1.35754
1.55981
1.52843
1.47535
41.6079
41.6071
41.6239
41.7919
41.78
41.7861
66.9666
66.9529
66.9531
41.8365
41.82
41.8033
1.18511
1.14131
1.11345
66.5677
66.5546
66.5781
1.41647
1.3653
1.31985
41.9412
41.9314
41.9396
2.25013
2.2364
2.2004
1.86305
1.82079
1.78462
1.85505
1.81795
1.77267
41.7694
41.7696
41.7566
2.01193
2.00196
1.9575
39.2439
39.2408
39.232
2.46749
2.42995
2.39798
1.61714
1.56633
1.55297
1.82076
1.80398
1.7455
1.85105
1.8089
1.76075
2.61836
2.60628
2.56644
41.7484
41.7428
41.7457
1.46975
1.4297
1.42149
1.71346
1.69431
1.64218
41.3042
41.3045
41.2976
2.22295
2.17817
2.15198
39.2818
39.2909
39.2911
1.73082
1.70547
1.65435
39.1965
39.2029
39.1955
2.44793
2.42406
2.37647
41.3454
41.3408
41.3467
1.50436
1.45256
1.43366
39.2474
39.2446
39.2526
41.2413
41.2479
41.2609
1.68155
1.65397
1.60846
39.1978
39.201
39.2123
39.0576
39.0685
39.075
39.0423
39.0368
39.0446
1.43548
1.37619
1.3334
38.9538
38.9588
38.9754
41.2881
41.2982
41.3035
2.20923
2.1584
2.11837
2.58138
2.56169
2.52451
40.9967
40.9901
40.9941
1.78937
1.76205
1.71365
67.2727
67.2446
67.2235
41.5621
41.5773
41.5818
2.4574
2.41363
2.37299
40.6058
40.6165
40.616
1.58877
1.5403
1.51361
2.01716
1.98808
1.94151
67.5289
67.5128
67.4972
43.4608
43.4518
43.4545
40.9475
40.9416
40.946
43.9001
43.9007
43.9211
2.89708
2.86712
2.83454
41.5583
41.5682
41.5776
17.517
17.5339
17.5311
2.90233
2.87056
2.83584
2.36128
2.32527
2.2826
1.88179
1.83809
1.80218
43.0375
43.0435
43.059
41.1106
41.1046
41.1108
40.9218
40.9323
40.9364
41.0345
41.0345
41.0444
2.71864
2.70946
2.66346
2.50419
2.46424
2.44532
40.4918
40.4843
40.4853
37.3259
37.3193
37.3226
20.8322
20.67
21.7647
2.36985
2.36246
2.31735
2.06101
2.01342
1.99732
41.1461
41.1559
41.1588
2.42209
2.39988
2.3556
53.0853
53.1075
53.134
37.8191
37.8297
37.8288
2.43817
2.3932
2.36711
2.67579
2.6586
2.61406
34.0449
33.7266
33.2651
3.38929
3.34093
3.29952
1.90003
1.87268
1.86224
1.88995
1.86252
1.852
2.12027
2.09451
2.0769
39.1824
39.1893
39.1852
1.5358
1.51786
1.48954
40.4817
40.483
40.4743
1.9348
1.92885
1.8915
40.616
40.609
40.6092
1.50724
1.51212
1.47782
67.4478
67.4539
67.4347
37.1717
37.1677
37.1769
39.0138
39.0269
39.0296
2.07956
2.05569
2.03549
49.4435
49.4388
49.4523
1.85897
1.82926
1.80352
38.9507
38.9615
38.9571
41.7366
41.7314
41.7209
49.6998
49.7225
49.7131
37.7485
37.7396
37.7307
2.01654
1.98644
1.97862
41.8597
41.8538
41.8562
41.2521
41.2671
41.2683
1.61853
1.58955
1.5564
2.05223
2.04518
2.00609
1.6208
1.59042
1.5847
2.0899
2.06351
2.02696
41.1201
41.1243
41.138
2.10238
2.0913
2.05559
37.9666
37.978
37.9661
1.68588
1.65182
1.61492
1.65256
1.61038
1.57172
75.6615
75.6323
75.6214
1.78838
1.74979
1.71776
1.91772
1.89884
1.87235
46.7153
46.7027
46.7296
37.7551
37.7529
37.7639
2.41537
2.38738
2.35691
67.1247
67.1054
67.0776
2.11976
2.09288
2.05308
37.7461
37.7568
37.7401
2.4855
2.47673
2.43875
2.06171
2.02558
1.99075
37.7221
37.7264
37.7411
38.8245
38.836
38.8347
1.9401
1.89546
1.86139
37.8889
37.8833
37.9041
2.26237
2.24504
2.21325
49.2563
49.2812
49.2818
40.8568
40.8572
40.8675
39.1714
39.1817
39.176
39.3475
39.338
39.3273
2.13147
2.10004
2.07705
2.02782
1.98403
1.95019
2.11266
2.07419
2.07567
2.37229
2.3507
2.31747
2.1425
2.10533
2.08708
52.6624
52.6942
52.6956
2.36205
2.34805
2.30866
43.2111
43.2218
43.2264
2.09175
2.04737
2.03225
67.8005
67.7949
67.7804
39.4773
39.4628
39.4502
2.17043
2.12888
2.08554
40.4852
40.4947
40.4951
52.7042
52.7303
52.7545
39.4013
39.3965
39.3856
2.95322
2.9035
2.88286
2.48534
2.45213
2.42245
52.385
52.3937
52.4167
3.06903
3.05696
3.01212
2.69368
2.6486
2.62869
3.16648
3.12266
3.08797
2.7229
2.6979
2.65836
2.87802
2.8658
2.82399
2.5012
2.46108
2.45703
41.5844
41.5981
41.5959
59.8737
59.8894
59.8611
3.16569
3.13048
3.11393
41.8007
41.8104
41.8072
2.44412
2.3994
2.36977
41.6341
41.6324
41.6418
3.41581
3.41282
3.37706
2.95417
2.91516
2.90471
3.29937
3.29163
3.25583
37.8328
37.8259
37.8153
2.99746
2.96049
2.92323
41.1746
41.1731
41.1911
2.33524
2.2963
2.2894
67.1996
67.2084
67.1858
3.41732
3.38616
3.35198
38.9536
38.9526
38.9683
2.31197
2.27587
2.24171
2.74104
2.71457
2.67618
43.5988
43.5983
43.6126
41.4873
41.503
41.4965
37.7296
37.7376
37.7349
41.5643
41.5653
41.5701
2.63048
2.59255
2.56031
3.88941
3.85648
3.8209
40.6221
40.6119
40.6121
3.44437
3.4079
3.36633
3.90487
3.87786
3.8455
3.07499
3.04373
2.994
41.7526
41.734
41.7264
40.949
40.9706
40.9756
38.8085
38.8045
38.8151
3.44212
3.41115
3.37051
37.3271
37.3329
37.325
40.9398
40.9356
40.9507
41.498
41.5093
41.5053
41.5599
41.5603
41.5673
41.8362
41.8293
41.8188
41.7368
41.7184
41.7135
3.03404
2.98713
2.9678
41.0208
41.0348
41.0304
40.7799
40.7906
40.8061
3.26152
3.24131
3.20131
40.7633
40.7791
40.7791
38.9098
38.9033
38.9098
3.02257
2.98168
2.95764
41.4681
41.4816
41.4786
3.35516
3.33897
3.30542
3.17252
3.14267
3.11886
3.48106
3.44531
3.39749
3.33686
3.2894
3.26355
3.79847
3.76881
3.73162
3.73907
3.71565
3.69294
40.5068
40.5048
40.5131
38.8683
38.8745
38.8694
39.4786
39.4746
39.4627
41.4235
41.4367
41.4292
2.51353
2.48759
2.46649
40.6699
40.6777
40.6863
2.25743
2.2321
2.22673
38.9776
38.9708
38.9734
40.6383
40.647
40.6592
38.9419
38.9464
38.9393
2.27013
2.2425
2.21736
41.261
41.2687
41.2782
39.467
39.4791
39.4839
2.48437
2.44677
2.41555
40.5152
40.5236
40.5322
2.64364
2.62889
2.5957
40.3284
40.3408
40.3537
2.49517
2.46853
2.44853
2.72355
2.70252
2.66812
40.9114
40.905
40.9165
41.1246
41.1305
41.1441
2.6125
2.59587
2.57976
39.0582
39.0519
39.0543
40.1334
40.1464
40.16
2.75635
2.74605
2.7178
40.7631
40.7768
40.7753
39.0223
39.0284
39.0206
2.4782
2.44799
2.43888
2.53157
2.49853
2.4656
39.6286
39.6204
39.6097
40.1403
40.14
40.1531
2.53592
2.50709
2.50971
40.8064
40.8032
40.8124
40.9798
40.9654
40.9674
39.153
39.1475
39.15
40.0027
40.0157
40.0153
2.61146
2.60098
2.57004
2.65264
2.63374
2.6008
39.8836
39.893
39.8995
2.39801
2.36136
2.3359
39.0991
39.1071
39.1006
40.7
40.7117
40.708
67.2892
67.2474
67.2213
2.84324
2.79719
2.76167
41.0157
41.0086
40.9945
2.93775
2.8982
2.85227
39.7291
39.7219
39.713
39.9105
39.8983
39.8861
39.7546
39.7647
39.7781
2.53662
2.50915
2.48349
39.1767
39.173
39.1768
40.0276
40.0264
40.0359
40.7873
40.7835
40.7935
40.9291
40.9329
40.9228
40.6877
40.6823
40.6733
40.0499
40.0404
40.03
39.7696
39.7695
39.7803
39.8949
39.9037
39.9012
2.81438
2.78355
2.74522
2.73422
2.68815
2.64593
3.18706
3.16023
3.12886
40.8553
40.8646
40.8607
40.685
40.6949
40.7091
3.62837
3.60577
3.602
2.98372
2.94824
2.92794
3.2122
3.18272
3.14014
3.22598
3.22531
3.19277
2.89508
2.85038
2.82566
3.13547
3.11524
3.07707
37.4432
37.4434
37.4453
2.95789
2.91569
2.88512
39.3777
39.372
39.3559
3.73831
3.71067
3.68751
40.236
40.2262
40.2268
3.21698
3.1877
3.15246
39.91
39.908
39.9166
43.1819
43.1794
43.1913
3.10496
3.06163
3.02356
3.58624
3.56374
3.5355
3.56147
3.5351
3.52387
3.62168
3.60117
3.57234
4.05994
4.02565
3.98855
3.66063
3.64688
3.60836
3.37168
3.33491
3.31052
67.6617
67.675
67.6691
39.639
39.6314
39.6397
3.99033
3.94733
3.90758
4.39854
4.3642
4.32539
39.8086
39.8171
39.8106
39.5599
39.5603
39.5692
40.5543
40.5523
40.5643
40.2289
40.2311
40.2191
3.87193
3.83853
3.80809
40.5391
40.55
40.5627
3.64232
3.61962
3.58285
39.5731
39.5742
39.5623
40.3838
40.3726
40.3615
40.7095
40.7014
40.7043
3.52384
3.52852
3.48164
39.4101
39.3996
39.3925
2.81588
2.79301
2.75846
40.8283
40.8187
40.8112
2.72527
2.68926
2.66591
40.3751
40.3739
40.3857
40.3839
40.3964
40.4057
4.31406
4.28049
4.24112
40.9082
40.9002
40.8929
67.4595
67.49
67.474
3.93785
3.94197
3.89208
43.3663
43.3687
43.3807
3.36706
3.32817
3.27728
39.4308
39.4418
39.4541
50.9454
50.9975
51.014
4.32383
4.2877
4.24744
40.6538
40.6699
40.669
40.4533
40.4581
40.4715
4.37374
4.36692
4.32285
39.6138
39.6291
39.6317
3.89299
3.85963
3.81632
3.31633
3.27474
3.23041
40.8673
40.8718
40.8656
40.4906
40.499
40.51
40.9425
40.9516
40.9547
39.3242
39.3124
39.3095
39.6681
39.664
39.6682
3.7903
3.75152
3.7133
4.12219
4.10104
4.06123
40.2289
40.2136
40.1998
39.4086
39.4056
39.39
3.89099
3.84406
3.80871
39.6201
39.6262
39.637
40.5411
40.5512
40.5576
40.4498
40.4554
40.4738
4.3959
4.36764
4.33103
39.8107
39.8163
39.8288
39.2517
39.2362
39.23
40.5524
40.5643
40.5711
39.3026
39.2957
39.2807
39.9319
39.9277
39.9129
39.1798
39.164
39.1572
39.2158
39.2103
39.1959
39.8381
39.8357
39.8426
39.7845
39.765
39.759
3.98044
3.94434
3.92913
39.6466
39.6374
39.6377
4.5852
4.55851
4.53347
4.06749
4.03248
3.98469
39.0994
39.0862
39.0817
4.71287
4.69674
4.6688
39.9617
39.968
39.9825
4.34756
4.31419
4.27802
39.9854
39.9818
39.994
4.18857
4.16908
4.13076
3.93171
3.88123
3.84986
4.19527
4.16913
4.12238
39.1546
39.1496
39.1359
3.9403
3.89049
3.85314
4.30752
4.28285
4.25304
40.6338
40.6221
40.6309
4.30641
4.28573
4.26262
40.3174
40.3159
40.3286
39.4192
39.4272
39.422
2.63745
2.62799
2.60795
40.4585
40.4661
40.4781
2.50322
2.4838
2.47841
39.6473
39.6339
39.6238
39.0455
39.032
39.0281
39.6251
39.6119
39.6057
42.7259
42.7414
42.7564
40.8597
40.8564
40.8748
3.22331
3.19155
3.16694
3.24584
3.20585
3.18196
3.45303
3.42934
3.39918
3.41683
3.40546
3.3752
3.19709
3.16098
3.14233
39.7138
39.7081
39.6989
39.0811
39.072
39.0792
3.41043
3.38548
3.3498
3.24295
3.21021
3.19309
2.75855
2.73503
2.699
39.2346
39.2262
39.2179
63.9059
63.9066
63.9248
21.6026
21.6144
21.6119
3.23689
3.20326
3.18656
63.5425
63.5481
63.5674
22.6565
22.6664
22.6711
63.6942
63.6952
63.7103
2.85562
2.81371
2.78163
3.65318
3.64247
3.61479
67.5891
67.5818
67.5939
2.85798
2.8231
2.78583
3.59719
3.57353
3.58147
41.2251
41.2241
41.2377
41.0183
41.0028
41.0105
63.5395
63.566
63.5656
3.37361
3.35848
3.33041
63.5352
63.5343
63.5554
3.29413
3.27475
3.2366
3.14441
3.11261
3.09615
3.09165
3.0563
3.03387
3.48955
3.45769
3.43733
39.6515
39.639
39.6299
40.4641
40.461
40.473
39.203
39.1914
39.1841
39.27
39.2652
39.27
3.24947
3.2296
3.20284
39.4001
39.3827
39.3753
3.36778
3.3525
3.32692
41.3019
41.308
41.3145
67.9621
67.973
67.9672
3.30037
3.27374
3.25286
3.48453
3.4628
3.43195
63.2748
63.3036
63.3002
67.7361
67.7371
67.7556
59.1994
59.1986
59.2407
37.7628
37.7588
37.7679
3.85525
3.82786
3.79803
39.4757
39.4671
39.4544
67.4425
67.4786
67.4665
38.6987
38.7132
38.7109
3.25299
3.23289
3.21317
3.66903
3.63382
3.59662
4.15252
4.12695
4.10559
41.224
41.2368
41.2535
3.85092
3.82491
3.81225
50.636
50.6741
50.7243
42.678
42.6835
42.7066
22.4767
22.4752
22.5072
67.6659
67.6608
67.6717
63.6432
63.6873
63.6872
22.6126
22.6209
22.6104
3.59719
3.60277
3.57304
67.9506
67.9471
67.9577
3.85721
3.84104
3.84684
4.25167
4.21915
4.1997
4.53166
4.51323
4.48735
3.93367
3.91376
3.87093
3.85418
3.84043
3.79762
4.36589
4.33604
4.30787
4.66257
4.6394
4.60573
4.28261
4.24277
4.21162
68.1091
68.1009
68.1085
3.84932
3.82023
3.7997
4.59191
4.55397
4.51371
41.0008
41.0039
40.9871
4.41719
4.40783
4.37024
4.14067
4.10796
4.1021
39.4075
39.3909
39.3896
67.5129
67.4909
67.4547
23.0836
23.0776
23.0753
4.94979
4.92068
4.88569
4.15013
4.12405
4.09427
50.6808
50.7029
50.738
4.93563
4.90127
4.85996
59.4584
59.4827
59.4906
62.9672
62.9606
62.9732
59.233
59.2315
59.275
5.25877
5.23845
5.21284
40.499
40.5148
40.5136
42.9494
42.9684
42.9652
38.9047
38.8915
38.8786
40.6114
40.6188
40.6349
4.3704
4.33775
4.31608
3.99813
3.97168
3.97263
43.8618
43.6138
43.3879
40.6362
40.6335
40.6436
4.76631
4.73053
4.69971
4.38626
4.35581
4.3541
4.68494
4.65855
4.63286
4.77634
4.74962
4.71601
5.08884
5.06375
5.03153
5.15548
5.15759
5.11992
4.81532
4.77881
4.77034
41.309
41.321
41.326
38.3972
38.3937
38.4064
39.5275
39.5227
39.5155
38.3555
38.3539
37.9233
48.2501
48.2359
48.2261
4.73768
4.6949
4.66412
4.95293
4.94901
4.91002
50.2874
50.3214
50.3597
37.6615
37.6709
37.6694
5.0694
5.04146
5.00819
5.42191
5.40064
5.37753
4.95778
4.9431
4.91044
68.0707
68.0732
68.0655
58.645
58.7066
58.7244
68.2035
68.1947
68.1961
63.1731
63.1972
63.1891
41.212
41.2132
41.2319
5.19054
5.15642
5.12629
4.7674
4.7336
4.69775
5.16908
5.12731
5.09373
5.36451
5.34738
5.308
5.51352
5.50415
5.46983
39.5098
39.498
39.485
52.4012
52.424
52.4463
40.5617
40.5588
40.5666
39.4398
39.4214
39.4138
5.0126
5.00139
4.97308
4.78547
4.74655
4.72943
39.5469
39.5409
39.529
5.31335
5.28903
5.26332
4.87334
4.83913
4.79487
40.7744
40.781
40.7993
4.77802
4.75598
4.71544
5.25775
5.23468
5.22103
5.4787
5.45664
5.44095
66.5367
66.539
66.5595
5.48397
5.45996
5.43044
66.4524
66.4647
66.4747
3.98937
3.95123
3.92641
4.18589
4.17076
4.1415
3.98561
3.95057
3.9291
4.16426
4.14212
4.10903
41.3037
41.3155
41.3191
66.6783
66.6626
66.6541
3.93415
3.90276
3.8845
66.7538
66.767
66.7744
3.45771
3.44322
3.4146
4.09159
4.07289
4.0395
66.6399
66.6422
66.6569
66.4194
66.4375
66.452
40.695
40.7061
40.7314
3.86877
3.83918
3.81459
40.8599
40.8835
40.8942
67.649
67.6515
67.6651
40.7426
40.7447
40.7633
4.01141
3.97237
3.95323
66.359
66.383
66.3945
4.18708
4.17085
4.14508
66.5939
66.603
66.6284
41.4019
41.4099
41.4282
4.11947
4.09989
4.07315
66.6033
66.6227
66.6234
3.76977
3.73981
3.7318
4.08451
4.08991
4.06222
66.5446
66.5495
66.5741
63.8483
63.8428
63.8504
66.2383
66.2767
66.291
66.5254
66.5364
66.552
41.1493
41.1685
41.1889
41.182
41.2009
41.215
3.71841
3.69255
3.68624
50.3153
50.34
50.3788
40.9327
40.951
40.9722
66.3756
66.3751
66.3904
40.9448
40.9412
40.957
66.0527
66.0454
66.0685
43.1299
43.1362
43.1465
40.7646
40.7596
40.7735
3.9148
3.90919
3.88562
3.76336
3.73656
3.70651
4.18279
4.15142
4.12038
66.2844
66.3152
66.3425
66.2979
66.3298
66.3317
66.4209
66.4273
66.4471
4.07381
4.04907
4.0423
4.38136
4.35168
4.33593
4.4569
4.43759
4.41127
66.5607
66.5783
66.5823
4.16779
4.14292
4.11988
65.9961
66.0019
66.0461
63.6795
63.6777
63.6918
66.1532
66.1829
66.1941
4.04825
4.01781
3.98775
4.37069
4.34211
4.3129
4.71797
4.6861
4.6551
4.41113
4.38739
4.36761
65.6522
65.696
65.7088
66.1303
66.1114
66.0905
3.66747
3.63134
3.5999
66.5272
66.5478
66.5563
66.6597
66.672
66.6777
37.7763
37.7713
37.7822
66.5093
66.5189
66.5319
52.4187
52.4155
52.4454
4.69789
4.66498
4.63475
4.35147
4.33656
4.31381
66.5653
66.5843
66.5939
3.87416
3.84023
3.80181
66.4268
66.4315
66.4531
5.13437
5.12081
5.09578
65.3234
65.3213
65.3579
4.34789
4.31679
4.28449
41.3876
41.3984
41.4119
4.96275
4.93959
4.91792
41.1457
41.1584
41.1747
65.9663
65.9819
65.9618
4.33604
4.30008
4.2984
4.77238
4.73803
4.7119
5.18917
5.16955
5.13752
63.7376
63.7612
63.7568
66.6054
66.6119
66.6245
5.11217
5.07867
5.04412
4.75635
4.71687
4.67866
40.9628
40.9882
40.9953
65.5385
65.5637
65.5814
5.45665
5.43922
5.40921
40.8823
40.8883
40.9038
40.9553
40.9508
40.9622
64.9166
64.9254
64.9562
5.41634
5.3906
5.36249
65.3993
65.4318
65.4189
4.96356
4.91797
4.88623
66.4152
66.4345
66.4438
5.62928
5.60675
5.58302
40.839
40.8619
40.8678
63.4122
63.4485
63.4754
5.20657
5.18692
5.15972
4.46311
4.43716
4.40483
5.57018
5.54392
5.51344
5.89688
5.87993
5.85773
5.05444
5.01338
4.9825
40.7308
40.7366
40.7558
40.82
40.8384
40.8477
63.3326
63.3548
63.4006
5.3516
5.33578
5.30678
5.19256
5.16262
5.14402
67.8004
67.7788
67.7593
5.55085
5.53023
5.53858
40.9638
40.9604
40.9636
5.38692
5.36857
5.33032
5.76861
5.77142
5.79661
41.0377
41.0497
41.0582
5.6915
5.67377
5.64777
5.49442
5.47488
5.45515
66.3393
66.3494
66.3684
5.93134
5.92905
5.90028
40.9905
41.0003
41.0165
5.50315
5.52185
5.53625
64.1585
64.148
64.1625
64.437
64.4554
64.4851
52.1026
52.134
52.1559
64.8585
64.8883
64.8857
64.4045
64.427
64.4693
66.4513
66.4648
66.4692
6.08509
6.05605
6.02814
5.78683
5.80055
5.82365
5.45433
5.46689
5.49423
52.0523
52.0711
52.1057
41.3517
41.3587
41.3741
41.1682
41.1641
41.1762
6.17338
6.17137
6.14754
64.1004
64.1108
64.1303
5.68304
5.6728
5.68353
41.1667
41.1753
41.1981
41.3762
41.3979
41.3995
5.48031
5.45246
5.43284
5.85101
5.82838
5.81796
41.2118
41.237
41.2503
5.88863
5.86783
5.86732
64.0876
64.0966
64.156
63.7877
63.8449
63.8559
66.1818
66.2034
66.2127
5.60398
5.59023
5.56482
6.02889
6.00088
5.98543
67.7583
67.7658
67.7466
5.70645
5.68399
5.65394
41.1767
41.1957
41.2092
68.1249
68.1145
68.116
41.0553
41.0528
41.0721
68.1516
68.1581
68.149
5.6817
5.65041
5.61964
63.1268
63.1685
63.1722
63.6145
63.6342
63.7046
66.0787
66.0855
66.1021
41.1471
41.1558
41.1712
6.02924
6.00413
5.97283
5.9572
5.93177
5.90816
5.93966
5.91636
5.89477
6.1675
6.14525
6.11036
68.315
68.307
68.3108
66.1495
66.1626
66.1765
6.04817
6.03386
6.01656
6.42118
6.39322
6.36327
62.9288
62.9736
62.9633
62.5373
62.5532
62.5703
65.9616
65.9726
65.9918
66.0129
66.0263
66.0425
62.3711
62.3852
62.462
62.7131
62.7268
62.7647
61.8414
61.9091
61.9126
4.5722
4.54531
4.53285
61.5644
61.5668
61.6586
63.9926
63.9816
63.9861
68.1082
68.1227
68.102
65.7909
65.8064
65.8264
41.4162
41.4257
41.423
63.4197
63.4487
63.4289
4.52023
4.49241
4.47971
4.58664
4.56167
4.53311
64.1541
64.1308
64.1225
68.4038
68.3961
68.4001
66.0922
66.1133
66.1098
4.73461
4.70152
4.67117
4.99675
4.96551
4.9309
51.7494
51.7693
51.8029
4.88962
4.87642
4.84513
4.67326
4.63947
4.61611
4.91033
4.88888
4.85795
4.86867
4.84511
4.82537
4.72171
4.71177
4.67938
5.19584
5.16188
5.13426
65.8263
65.842
65.8631
62.7228
62.775
62.8381
63.2267
63.2127
63.1901
49.7817
49.8122
49.8021
62.546
62.6209
62.6243
62.3252
62.358
62.3854
4.85721
4.86117
4.82025
64.0242
64.011
63.9845
5.15365
5.13039
5.14186
68.2681
68.2738
68.2645
4.88244
4.85582
4.8287
4.85409
4.85887
4.82838
4.46126
4.43263
4.44307
4.32467
4.29107
4.26455
4.6558
4.63196
4.60386
5.28188
5.26099
5.23695
5.00079
4.96581
4.95767
68.4709
68.4599
68.4582
63.693
63.6369
63.6294
4.94406
4.91852
4.88369
65.5799
65.6003
65.6157
4.6125
4.58443
4.55919
4.77434
4.74389
4.70678
4.47738
4.4627
4.42653
62.102
62.1135
62.1791
63.4278
63.3802
63.3647
61.2568
61.3393
61.341
5.20639
5.17574
5.14214
4.84675
4.81502
4.79124
63.586
63.5429
63.5292
63.2984
63.2824
63.2856
5.22506
5.22558
5.18665
65.3796
65.3783
65.4015
58.2788
58.2891
58.3397
5.15428
5.11714
5.08947
65.4127
65.4317
65.4506
57.7124
57.7602
57.7817
5.51584
5.48855
5.45964
5.10505
5.10369
5.07032
4.78726
4.75616
4.75792
4.74251
4.70927
4.67671
5.10752
5.07566
5.0449
5.47212
5.44117
5.40986
5.03158
5.00074
4.9758
43.2228
43.2325
43.2403
37.7268
37.7249
37.7317
5.6684
5.63345
5.61328
68.3452
68.3534
68.3434
4.76936
4.73372
4.69794
5.24229
5.20738
5.16792
62.2285
62.2494
62.2799
5.22138
5.17813
5.13913
5.65625
5.619
5.58333
5.89176
5.88296
5.85585
5.68307
5.65205
5.6391
68.4585
68.4606
68.44
5.73845
5.72866
5.69492
63.57
63.5141
63.4819
5.79697
5.77359
5.74692
6.13929
6.10657
6.07471
68.7029
68.6928
68.6984
68.4355
68.4245
68.4153
60.568
60.5828
60.6633
5.79203
5.76636
5.73492
62.333
62.3296
62.3468
6.03186
6.00357
5.98591
6.25237
6.24755
6.21567
57.2919
57.3027
57.3545
37.6608
37.6677
37.664
5.65691
5.62454
5.59637
63.6148
63.5677
63.5724
64.0575
64.0492
64.0165
6.1623
6.13305
6.10536
64.7252
64.7444
64.7673
5.9451
5.92123
5.89195
64.9538
64.9853
64.9876
62.263
62.3027
62.3199
6.62
6.59469
6.5788
6.51286
6.48438
6.45809
25.7808
25.7929
25.7866
64.7347
64.7495
64.7712
5.80178
5.77295
5.74668
37.7726
37.7679
37.7727
64.44
64.3987
64.3696
64.4557
64.4331
64.4301
6.63745
6.63894
6.60603
68.4879
68.4806
68.4844
64.5028
64.5127
64.5374
6.10013
6.07071
6.04283
6.08467
6.05838
6.06377
6.33421
6.31047
6.30263
63.9434
63.9428
63.9217
37.7392
37.7464
37.7384
49.312
49.3412
49.3413
62.017
62.0174
62.0327
39.8961
39.6735
39.4155
6.38536
6.36408
6.33651
6.77272
6.74705
6.71641
6.91588
6.91931
6.88427
6.40262
6.38256
6.3798
61.274
61.2971
61.3516
42.9687
42.966
42.9792
6.6605
6.64293
6.61568
6.52611
6.49804
6.48202
64.7226
64.696
64.6813
62.0447
62.0409
62.0633
63.4563
63.4754
63.4956
6.44812
6.42537
6.40062
64.6967
64.6706
64.676
6.67953
6.67357
6.65271
64.3975
64.4037
64.427
6.00975
6.0152
6.04749
61.2216
61.2558
61.2852
63.7406
63.7555
63.7497
62.9161
62.9108
62.927
51.7256
51.7541
51.774
63.3889
63.3148
63.2889
60.5982
60.5773
60.6048
42.578
42.5876
42.6062
6.25734
6.27542
6.27857
68.9528
68.9785
68.9655
68.6409
68.6561
68.6454
6.28843
6.28358
6.30885
63.3163
63.3331
63.3551
6.43869
6.42289
6.42143
61.6998
61.7459
61.7584
64.5108
64.5228
64.5409
63.8036
63.7917
63.8077
6.63511
6.60869
6.59393
6.50166
6.4741
6.44711
6.77629
6.75241
6.72257
36.6379
36.6149
36.5688
68.5485
68.5368
68.5242
6.7045
6.6765
6.65641
6.67388
6.64754
6.65304
60.6386
60.6712
60.7517
60.8942
60.9673
60.9856
6.70004
6.68068
6.65317
68.4898
68.4971
68.4858
6.12006
6.11967
6.09294
6.58035
6.54143
6.51828
68.974
68.9714
68.9856
6.83673
6.81932
6.78948
63.5789
63.6007
63.5894
46.1907
46.1647
46.0203
63.6494
63.6143
63.5766
52.0991
52.1373
52.1375
68.628
68.6239
68.6287
64.0368
64.0598
64.0497
56.9371
56.9634
56.9652
5.47188
5.43935
5.4147
5.38846
5.35336
5.34376
5.65496
5.64811
5.61813
5.43674
5.40866
5.37467
5.70843
5.67164
5.64048
69.2091
69.1978
69.2111
61.3838
61.3685
61.3736
64.2709
64.2654
64.2799
5.6164
5.57884
5.54537
5.2492
5.22165
5.1902
63.9834
63.9394
63.8906
63.9781
64.0068
64.0038
64.9534
64.9324
64.9131
42.806
42.8211
42.8164
5.4771
5.45462
5.42643
61.4857
61.5571
61.5568
61.6613
61.6631
61.6945
37.5963
37.5997
37.6122
5.67116
5.65045
5.62035
60.7367
60.7584
60.8192
64.8822
64.8591
64.8616
56.7306
56.7289
56.7479
5.60762
5.58692
5.56114
5.38441
5.35477
5.33092
60.5241
60.5036
60.5609
69.0991
69.1186
69.1144
5.22024
5.19523
5.19456
5.55718
5.55944
5.53157
5.48683
5.46884
5.43825
5.16894
5.13674
5.10878
60.3321
60.3185
60.3482
61.1278
61.1547
61.1056
39.0045
39.0114
38.9988
5.54106
5.50629
5.48937
5.43067
5.40264
5.37573
56.6752
56.6972
56.7231
5.79543
5.75541
5.71975
5.88372
5.85461
5.81923
5.82121
5.78972
5.75033
5.71871
5.6806
5.65192
39.048
39.0305
39.0155
5.62011
5.59578
5.60234
63.7843
63.7931
63.8118
49.5097
49.5071
49.5212
61.5058
61.5493
61.6053
63.8145
63.8245
63.8463
63.6614
63.6405
63.6026
6.06877
6.03848
6.00379
49.0247
49.0403
49.0639
6.01236
5.97663
5.94424
6.37816
6.34725
6.31618
5.76879
5.75456
5.7291
5.56098
5.52765
5.5209
5.52133
5.48763
5.46041
6.09664
6.0707
6.04566
37.4054
37.4207
37.4124
56.5154
56.5573
56.5558
65.0811
65.0595
65.0383
63.5151
63.5049
63.5197
49.0134
49.0336
49.0602
5.63666
5.60771
5.57398
6.04024
6.01251
5.98457
5.81345
5.77719
5.73574
6.31323
6.27536
6.24455
6.03899
6.01211
5.98332
6.39668
6.37306
6.3377
6.57134
6.55412
6.52451
6.39568
6.35934
6.33333
64.9942
64.9661
64.9666
56.5073
56.5239
56.5545
6.65063
6.6296
6.59781
6.27726
6.24441
6.2225
67.6169
67.577
67.5521
6.5469
6.51496
6.48884
6.42705
6.4084