/*--------------------------------*- C++ -*----------------------------------*\
| =========                 |                                                 |
| \\      /  F ield         | OpenFOAM: The Open Source CFD Toolbox           |
|  \\    /   O peration     | Version:  v2012                                 |
|   \\  /    A nd           | Website:  www.openfoam.com                      |
|    \\/     M anipulation  |                                                 |
\*---------------------------------------------------------------------------*/
FoamFile
{
    version     2.0;
    format      ascii;
    class       volVectorField;
    location    "0";
    object      Uliftx;
}
// * * * * * * * * * * * * * * * * * * * * * * * * * * * * * * * * * * * * * //

dimensions      [0 1 -1 0 0 0 0];


internalField   nonuniform List<vector> 
228296
(
(0.187345 0 0)
(0.205397 0 0)
(0.220429 0 0)
(-0.237112 0 0)
(-0.185462 0 0)
(-0.187763 0 0)
(-0.340497 0 0)
(-0.141431 0 0)
(-0.24329 0 0)
(0.09429 0 0)
(0.20484 0 0)
(0.086667 0 0)
(0.114363 0 0)
(0.0425657 0 0)
(0.00515237 0 0)
(0.840399 0 0)
(0.895903 0 0)
(0.906582 0 0)
(0.239376 0 0)
(0.253031 0 0)
(0.255301 0 0)
(0.462616 0 0)
(0.296183 0 0)
(0.341712 0 0)
(0.29534 0 0)
(0.330899 0 0)
(0.373906 0 0)
(-0.221612 0 0)
(-0.206735 0 0)
(-0.187184 0 0)
(-0.189274 0 0)
(-0.257516 0 0)
(-0.229407 0 0)
(0.222634 0 0)
(0.178295 0 0)
(0.250059 0 0)
(0.175194 0 0)
(0.218424 0 0)
(0.234516 0 0)
(0.222516 0 0)
(0.192822 0 0)
(0.196022 0 0)
(0.12827 0 0)
(0.146292 0 0)
(0.0841891 0 0)
(1.05446 0 0)
(0.933745 0 0)
(0.915585 0 0)
(-0.0534931 0 0)
(-0.144045 0 0)
(-0.128345 0 0)
(0.184446 0 0)
(0.211868 0 0)
(0.226554 0 0)
(0.315842 0 0)
(0.399761 0 0)
(0.437384 0 0)
(-0.203586 0 0)
(-0.232033 0 0)
(-0.214535 0 0)
(-0.170523 0 0)
(-0.333321 0 0)
(-0.314096 0 0)
(-0.110276 0 0)
(-0.157889 0 0)
(-0.0780496 0 0)
(0.288159 0 0)
(0.303768 0 0)
(0.273224 0 0)
(0.428098 0 0)
(0.39348 0 0)
(0.436503 0 0)
(1.01379 0 0)
(1.17069 0 0)
(1.19943 0 0)
(0.0406128 0 0)
(0.134486 0 0)
(0.128168 0 0)
(-0.201143 0 0)
(-0.19424 0 0)
(-0.209444 0 0)
(0.247585 0 0)
(0.198418 0 0)
(0.192835 0 0)
(0.228428 0 0)
(0.194674 0 0)
(0.228474 0 0)
(0.24846 0 0)
(0.305856 0 0)
(0.262533 0 0)
(-0.0732498 0 0)
(-0.07791 0 0)
(-0.0764441 0 0)
(0.348383 0 0)
(0.325759 0 0)
(0.389134 0 0)
(0.424499 0 0)
(0.347402 0 0)
(0.375709 0 0)
(-0.0778944 0 0)
(-0.142675 0 0)
(-0.0244273 0 0)
(1.28173 0 0)
(1.32578 0 0)
(1.29359 0 0)
(0.283115 0 0)
(0.32719 0 0)
(0.362202 0 0)
(-0.140127 0 0)
(-0.215957 0 0)
(-0.205946 0 0)
(0.507199 0 0)
(0.479996 0 0)
(0.478413 0 0)
(-0.167946 0 0)
(-0.157149 0 0)
(-0.161267 0 0)
(-0.182732 0 0)
(-0.198808 0 0)
(-0.217449 0 0)
(0.126207 0 0)
(-0.00325583 0 0)
(0.0355265 0 0)
(0.168367 0 0)
(0.0182411 0 0)
(0.148642 0 0)
(0.0566082 0 0)
(0.102309 0 0)
(0.116133 0 0)
(0.283285 0 0)
(0.267402 0 0)
(0.248295 0 0)
(-0.0437034 0 0)
(-0.198347 0 0)
(-0.189974 0 0)
(-0.178982 0 0)
(-0.2042 0 0)
(-0.230649 0 0)
(-0.139038 0 0)
(-0.154341 0 0)
(-0.222875 0 0)
(0.206695 0 0)
(0.221768 0 0)
(0.217613 0 0)
(0.026365 0 0)
(0.347335 0 0)
(0.230329 0 0)
(0.00903492 0 0)
(0.0699551 0 0)
(0.0310776 0 0)
(0.24394 0 0)
(0.01872 0 0)
(0.110499 0 0)
(0.277766 0 0)
(0.258477 0 0)
(0.286755 0 0)
(0.898277 0 0)
(1.10345 0 0)
(1.20816 0 0)
(-0.0223736 0 0)
(0.077146 0 0)
(0.0263763 0 0)
(0.242792 0 0)
(0.0329111 0 0)
(0.0653243 0 0)
(-0.233689 0 0)
(-0.278106 0 0)
(-0.287789 0 0)
(0.0109156 0 0)
(-0.0659158 0 0)
(-0.209229 0 0)
(0.318028 0 0)
(0.294682 0 0)
(0.34656 0 0)
(-0.0723025 0 0)
(-0.108045 0 0)
(-0.0933012 0 0)
(1.15797 0 0)
(1.068 0 0)
(1.16062 0 0)
(0.202197 0 0)
(0.296589 0 0)
(0.318258 0 0)
(0.371093 0 0)
(0.407211 0 0)
(0.484123 0 0)
(0.181753 0 0)
(0.163858 0 0)
(0.228869 0 0)
(0.184639 0 0)
(0.16275 0 0)
(0.16945 0 0)
(0.229326 0 0)
(0.116403 0 0)
(0.168578 0 0)
(1.18002 0 0)
(0.994567 0 0)
(1.05702 0 0)
(0.423945 0 0)
(0.456784 0 0)
(0.371658 0 0)
(0.307824 0 0)
(0.307938 0 0)
(0.309975 0 0)
(0.436164 0 0)
(0.468564 0 0)
(0.336518 0 0)
(0.200164 0 0)
(0.404145 0 0)
(0.188229 0 0)
(0.324805 0 0)
(0.291458 0 0)
(0.292022 0 0)
(-0.183992 0 0)
(-0.138359 0 0)
(-0.148236 0 0)
(-0.152046 0 0)
(-0.155391 0 0)
(-0.149743 0 0)
(0.108017 0 0)
(-0.0858252 0 0)
(0.0178936 0 0)
(0.0237986 0 0)
(-0.00928612 0 0)
(0.00301225 0 0)
(-0.0957556 0 0)
(-0.00931417 0 0)
(0.0454964 0 0)
(-0.0609343 0 0)
(-0.120913 0 0)
(-0.151399 0 0)
(-0.0597681 0 0)
(-0.118792 0 0)
(-0.14742 0 0)
(0.00842335 0 0)
(-0.0927711 0 0)
(-0.103573 0 0)
(0.399486 0 0)
(0.381143 0 0)
(0.359545 0 0)
(0.443786 0 0)
(0.44068 0 0)
(0.442329 0 0)
(0.146999 0 0)
(0.216432 0 0)
(0.202933 0 0)
(-0.0161574 0 0)
(-0.217082 0 0)
(-0.0515053 0 0)
(0.161361 0 0)
(0.164297 0 0)
(0.207097 0 0)
(-0.00799801 0 0)
(-0.0389588 0 0)
(-0.00366405 0 0)
(0.0186502 0 0)
(-0.0642574 0 0)
(-0.0193514 0 0)
(0.0398316 0 0)
(-0.0660633 0 0)
(0.0678382 0 0)
(1.15236 0 0)
(1.2589 0 0)
(1.13242 0 0)
(-0.0126331 0 0)
(-0.20054 0 0)
(-0.160419 0 0)
(0.183528 0 0)
(0.0938949 0 0)
(0.0921912 0 0)
(0.0131974 0 0)
(-0.0222825 0 0)
(-0.0679018 0 0)
(0.54046 0 0)
(0.442689 0 0)
(0.504897 0 0)
(-0.17719 0 0)
(-0.121134 0 0)
(-0.132292 0 0)
(-0.0402864 0 0)
(-0.163838 0 0)
(-0.0299558 0 0)
(0.0766336 0 0)
(-0.0611814 0 0)
(-0.0257218 0 0)
(0.141529 0 0)
(0.219628 0 0)
(0.215856 0 0)
(-0.137132 0 0)
(-0.0838238 0 0)
(-0.100011 0 0)
(0.172224 0 0)
(0.327567 0 0)
(0.275012 0 0)
(0.0300047 0 0)
(-0.053503 0 0)
(0.101595 0 0)
(-0.077022 0 0)
(0.0425464 0 0)
(-0.110362 0 0)
(0.21953 0 0)
(0.179935 0 0)
(0.171351 0 0)
(-0.0882965 0 0)
(-0.0997596 0 0)
(-0.106234 0 0)
(-0.0265386 0 0)
(-0.0885809 0 0)
(-0.0870465 0 0)
(0.145829 0 0)
(0.271946 0 0)
(0.265328 0 0)
(0.103681 0 0)
(0.135116 0 0)
(0.100378 0 0)
(0.0372869 0 0)
(0.208008 0 0)
(0.181329 0 0)
(0.312862 0 0)
(0.36104 0 0)
(0.369707 0 0)
(0.452948 0 0)
(0.460853 0 0)
(0.534505 0 0)
(0.0355523 0 0)
(0.124385 0 0)
(0.138325 0 0)
(0.120221 0 0)
(0.177814 0 0)
(0.182463 0 0)
(0.164869 0 0)
(0.1907 0 0)
(0.150195 0 0)
(0.136361 0 0)
(0.0762762 0 0)
(0.161905 0 0)
(-0.0886267 0 0)
(-0.0592537 0 0)
(-0.112046 0 0)
(-0.0614492 0 0)
(-0.0396566 0 0)
(-0.106291 0 0)
(-0.152594 0 0)
(-0.128759 0 0)
(-0.144272 0 0)
(0.138646 0 0)
(0.130208 0 0)
(0.202263 0 0)
(0.00157188 0 0)
(0.0943342 0 0)
(0.0925954 0 0)
(-0.0569314 0 0)
(-0.0970018 0 0)
(-0.105577 0 0)
(0.731997 0 0)
(0.954094 0 0)
(1.05949 0 0)
(0.64187 0 0)
(0.60858 0 0)
(0.470971 0 0)
(0.00664759 0 0)
(0.109827 0 0)
(0.161411 0 0)
(0.351925 0 0)
(0.620541 0 0)
(0.369041 0 0)
(1.15934 0 0)
(1.01273 0 0)
(1.04442 0 0)
(-0.100289 0 0)
(-0.12859 0 0)
(-0.116687 0 0)
(0.459787 0 0)
(0.245498 0 0)
(0.354831 0 0)
(0.0959792 0 0)
(0.0426231 0 0)
(-0.00413105 0 0)
(0.156382 0 0)
(0.172923 0 0)
(0.208511 0 0)
(-0.14151 0 0)
(-0.0393689 0 0)
(-0.0239275 0 0)
(0.0167545 0 0)
(-0.0838889 0 0)
(-0.0684461 0 0)
(0.353038 0 0)
(0.368635 0 0)
(0.415963 0 0)
(0.0996633 0 0)
(-0.00150849 0 0)
(0.0388522 0 0)
(0.171336 0 0)
(0.191543 0 0)
(0.422169 0 0)
(-0.0420094 0 0)
(-0.0863211 0 0)
(-0.156719 0 0)
(0.705228 0 0)
(0.753379 0 0)
(0.508995 0 0)
(0.323728 0 0)
(0.324662 0 0)
(0.312417 0 0)
(-0.187255 0 0)
(-0.159667 0 0)
(-0.16122 0 0)
(0.0213323 0 0)
(0.0748981 0 0)
(0.0821223 0 0)
(-0.0725427 0 0)
(0.0106467 0 0)
(-0.0124104 0 0)
(-0.117596 0 0)
(-0.0917941 0 0)
(-0.0889995 0 0)
(0.931382 0 0)
(0.582424 0 0)
(0.701884 0 0)
(0.378501 0 0)
(0.372834 0 0)
(0.380845 0 0)
(0.0957168 0 0)
(0.138027 0 0)
(0.216361 0 0)
(0.0514865 0 0)
(0.104382 0 0)
(0.149361 0 0)
(0.0927464 0 0)
(0.00486645 0 0)
(-0.0153432 0 0)
(-0.0782435 0 0)
(-0.0700563 0 0)
(-0.140172 0 0)
(-0.00548535 0 0)
(-0.0376687 0 0)
(-0.043259 0 0)
(-0.071058 0 0)
(0.00441044 0 0)
(0.0145687 0 0)
(0.988206 0 0)
(1.13238 0 0)
(1.04992 0 0)
(0.377069 0 0)
(0.375835 0 0)
(0.375316 0 0)
(0.0800689 0 0)
(0.120668 0 0)
(0.191842 0 0)
(0.358879 0 0)
(0.398057 0 0)
(0.392893 0 0)
(0.160392 0 0)
(0.191028 0 0)
(0.267234 0 0)
(0.82186 0 0)
(0.807066 0 0)
(0.737659 0 0)
(0.963812 0 0)
(0.83027 0 0)
(0.918632 0 0)
(-0.141109 0 0)
(-0.129346 0 0)
(-0.19516 0 0)
(0.102641 0 0)
(0.0569806 0 0)
(0.0850435 0 0)
(0.062238 0 0)
(0.14896 0 0)
(0.187596 0 0)
(-0.0220908 0 0)
(0.0522161 0 0)
(0.143802 0 0)
(-0.0874572 0 0)
(-0.0978825 0 0)
(-0.101113 0 0)
(-0.108048 0 0)
(-0.127649 0 0)
(-0.161874 0 0)
(0.939659 0 0)
(0.895151 0 0)
(0.927655 0 0)
(0.128262 0 0)
(0.101061 0 0)
(0.16521 0 0)
(0.422 0 0)
(0.426563 0 0)
(0.47672 0 0)
(0.198906 0 0)
(0.209542 0 0)
(0.294126 0 0)
(0.172279 0 0)
(0.140813 0 0)
(0.144946 0 0)
(0.157057 0 0)
(0.164501 0 0)
(0.187068 0 0)
(0.0592288 0 0)
(0.0931236 0 0)
(0.0164807 0 0)
(-0.0788676 0 0)
(-0.0890157 0 0)
(-0.104643 0 0)
(0.234604 0 0)
(0.112942 0 0)
(0.139574 0 0)
(-0.122753 0 0)
(-0.199493 0 0)
(-0.216712 0 0)
(0.870099 0 0)
(0.837447 0 0)
(0.813832 0 0)
(0.119737 0 0)
(0.121103 0 0)
(0.138495 0 0)
(0.121966 0 0)
(0.0989029 0 0)
(0.0937256 0 0)
(0.811337 0 0)
(0.948161 0 0)
(0.67742 0 0)
(-0.156183 0 0)
(-0.0865162 0 0)
(-0.0709405 0 0)
(-0.0862657 0 0)
(-0.18303 0 0)
(-0.135203 0 0)
(0.10325 0 0)
(0.176781 0 0)
(0.221352 0 0)
(0.0719268 0 0)
(0.122824 0 0)
(0.241057 0 0)
(0.0946358 0 0)
(0.103481 0 0)
(0.103672 0 0)
(-0.0700127 0 0)
(-0.0908705 0 0)
(-0.0591437 0 0)
(0.388376 0 0)
(0.416911 0 0)
(0.457013 0 0)
(0.428527 0 0)
(0.460509 0 0)
(0.521389 0 0)
(0.755078 0 0)
(0.827217 0 0)
(0.840616 0 0)
(-0.0624826 0 0)
(0.00348154 0 0)
(-0.0481872 0 0)
(0.14662 0 0)
(0.0824494 0 0)
(0.0823619 0 0)
(0.966104 0 0)
(0.953346 0 0)
(0.753676 0 0)
(0.178928 0 0)
(0.0870288 0 0)
(0.11601 0 0)
(0.040645 0 0)
(-0.126955 0 0)
(-0.0642007 0 0)
(1.02161 0 0)
(0.984697 0 0)
(1.11175 0 0)
(0.0338093 0 0)
(0.0735127 0 0)
(0.149196 0 0)
(-0.0516648 0 0)
(0.0445515 0 0)
(-0.0143285 0 0)
(0.150955 0 0)
(0.109513 0 0)
(0.141473 0 0)
(1.05626 0 0)
(0.738407 0 0)
(0.834263 0 0)
(0.105427 0 0)
(0.109044 0 0)
(0.158776 0 0)
(0.379521 0 0)
(0.425302 0 0)
(0.463785 0 0)
(0.940504 0 0)
(0.88002 0 0)
(0.968274 0 0)
(-0.0284963 0 0)
(-0.0843118 0 0)
(0.04651 0 0)
(0.0918871 0 0)
(0.0859059 0 0)
(0.078344 0 0)
(0.0595157 0 0)
(0.052379 0 0)
(0.158001 0 0)
(0.493175 0 0)
(0.453845 0 0)
(0.496673 0 0)
(-0.1581 0 0)
(-0.0654847 0 0)
(-0.133798 0 0)
(0.939618 0 0)
(0.695171 0 0)
(0.877063 0 0)
(0.61094 0 0)
(0.530993 0 0)
(0.486936 0 0)
(0.99857 0 0)
(1.36678 0 0)
(1.02197 0 0)
(-0.0457175 0 0)
(0.0826747 0 0)
(0.0341093 0 0)
(-0.0537162 0 0)
(-0.0711229 0 0)
(0.0689523 0 0)
(0.425634 0 0)
(0.487923 0 0)
(0.491489 0 0)
(0.0672047 0 0)
(0.0957538 0 0)
(0.0597904 0 0)
(0.49369 0 0)
(0.580805 0 0)
(0.522746 0 0)
(0.0965258 0 0)
(0.174336 0 0)
(0.147466 0 0)
(0.542776 0 0)
(0.491815 0 0)
(0.539901 0 0)
(0.193306 0 0)
(0.0891985 0 0)
(0.0998231 0 0)
(0.148471 0 0)
(0.107069 0 0)
(0.163511 0 0)
(-0.0568857 0 0)
(-0.0033705 0 0)
(0.0855781 0 0)
(-0.134434 0 0)
(-0.0823056 0 0)
(-0.0585423 0 0)
(0.566547 0 0)
(0.514819 0 0)
(0.555102 0 0)
(1.01268 0 0)
(0.748643 0 0)
(0.757444 0 0)
(-0.128781 0 0)
(-0.200348 0 0)
(-0.0545415 0 0)
(0.801335 0 0)
(0.72896 0 0)
(0.865917 0 0)
(1.12911 0 0)
(0.957623 0 0)
(1.02978 0 0)
(0.000427582 0 0)
(-0.00722154 0 0)
(-0.0721077 0 0)
(-0.00438245 0 0)
(-0.00625443 0 0)
(0.0502297 0 0)
(-0.108155 0 0)
(-0.00806765 0 0)
(0.0178194 0 0)
(0.117996 0 0)
(0.0625546 0 0)
(0.0818935 0 0)
(-0.00887257 0 0)
(-0.0265385 0 0)
(-0.000606144 0 0)
(0.462695 0 0)
(0.55337 0 0)
(0.537712 0 0)
(-0.0170078 0 0)
(0.0580998 0 0)
(0.069677 0 0)
(0.0292418 0 0)
(-0.167181 0 0)
(-0.147343 0 0)
(-0.089473 0 0)
(0.1065 0 0)
(-0.0461118 0 0)
(0.557114 0 0)
(0.756872 0 0)
(0.690688 0 0)
(0.841627 0 0)
(0.857231 0 0)
(0.920691 0 0)
(-0.0483885 0 0)
(0.128809 0 0)
(0.129199 0 0)
(0.809886 0 0)
(0.859754 0 0)
(0.907059 0 0)
(-0.0347653 0 0)
(0.0301901 0 0)
(0.0199377 0 0)
(1.04947 0 0)
(0.932973 0 0)
(0.931888 0 0)
(0.00736249 0 0)
(-0.112769 0 0)
(0.0946348 0 0)
(-0.0301346 0 0)
(0.140395 0 0)
(0.120144 0 0)
(0.118343 0 0)
(0.0708739 0 0)
(0.131075 0 0)
(0.0558999 0 0)
(-0.0240518 0 0)
(0.0315279 0 0)
(0.0322697 0 0)
(-0.0320787 0 0)
(-0.017112 0 0)
(0.544032 0 0)
(0.446471 0 0)
(0.496748 0 0)
(-0.0254595 0 0)
(0.0529981 0 0)
(-0.134928 0 0)
(-0.0990241 0 0)
(-0.0800809 0 0)
(-0.0783021 0 0)
(0.943131 0 0)
(0.870904 0 0)
(0.84519 0 0)
(0.707479 0 0)
(0.849427 0 0)
(0.860999 0 0)
(1.04654 0 0)
(0.853006 0 0)
(0.891784 0 0)
(0.0646696 0 0)
(-0.043633 0 0)
(0.0508873 0 0)
(0.60118 0 0)
(0.813001 0 0)
(0.764637 0 0)
(0.706231 0 0)
(0.776231 0 0)
(0.756122 0 0)
(1.06059 0 0)
(1.14184 0 0)
(1.05084 0 0)
(0.0416863 0 0)
(0.0726353 0 0)
(0.0881337 0 0)
(0.0310125 0 0)
(0.012571 0 0)
(0.0382371 0 0)
(-0.0292166 0 0)
(-0.120786 0 0)
(-0.0234055 0 0)
(0.94462 0 0)
(0.718977 0 0)
(0.767429 0 0)
(-0.1648 0 0)
(-0.256297 0 0)
(-0.252778 0 0)
(-0.611076 0 0)
(-0.48152 0 0)
(-0.714243 0 0)
(0.0598125 0 0)
(0.0388344 0 0)
(0.134867 0 0)
(-0.108404 0 0)
(-0.0126532 0 0)
(-0.155808 0 0)
(0.04953 0 0)
(0.112084 0 0)
(0.0483878 0 0)
(0.0641022 0 0)
(0.244903 0 0)
(0.210821 0 0)
(-0.0128072 0 0)
(0.0626268 0 0)
(-0.0333349 0 0)
(0.746702 0 0)
(0.878084 0 0)
(0.819909 0 0)
(-0.116939 0 0)
(-0.0976737 0 0)
(-0.0850697 0 0)
(0.963483 0 0)
(0.744109 0 0)
(0.883972 0 0)
(0.938709 0 0)
(0.677102 0 0)
(0.655509 0 0)
(0.0287227 0 0)
(-0.0628403 0 0)
(0.0426282 0 0)
(-0.0303245 0 0)
(-0.103905 0 0)
(-0.104703 0 0)
(0.047469 0 0)
(0.0280002 0 0)
(0.0142271 0 0)
(0.0292006 0 0)
(0.0948106 0 0)
(0.037444 0 0)
(0.0280566 0 0)
(-0.0974269 0 0)
(0.010208 0 0)
(0.16894 0 0)
(0.126735 0 0)
(0.177783 0 0)
(-0.0312589 0 0)
(-0.117738 0 0)
(-0.0638263 0 0)
(-0.0443908 0 0)
(0.0586158 0 0)
(-0.0446102 0 0)
(-0.123989 0 0)
(-0.16949 0 0)
(-0.189726 0 0)
(0.0635074 0 0)
(0.0662497 0 0)
(0.0833333 0 0)
(-0.0369019 0 0)
(-0.123179 0 0)
(-0.0616345 0 0)
(-0.192922 0 0)
(-0.304702 0 0)
(-0.315873 0 0)
(-0.140605 0 0)
(-0.159698 0 0)
(-0.292151 0 0)
(-0.00484099 0 0)
(0.0695021 0 0)
(-0.0149199 0 0)
(0.00475087 0 0)
(0.109291 0 0)
(0.184466 0 0)
(0.0573232 0 0)
(-0.00279897 0 0)
(0.039128 0 0)
(-0.266358 0 0)
(-0.326077 0 0)
(-0.357096 0 0)
(-0.267357 0 0)
(-0.28305 0 0)
(-0.350141 0 0)
(-0.193453 0 0)
(-0.224975 0 0)
(-0.17301 0 0)
(-0.227098 0 0)
(-0.150506 0 0)
(-0.111457 0 0)
(-0.0507756 0 0)
(-0.121339 0 0)
(-0.0456057 0 0)
(-0.0496844 0 0)
(-0.0282651 0 0)
(-0.0125883 0 0)
(0.0692228 0 0)
(0.140982 0 0)
(0.0923595 0 0)
(-0.0738791 0 0)
(-0.0782117 0 0)
(-0.0833649 0 0)
(-0.00992949 0 0)
(0.0206885 0 0)
(-0.0239497 0 0)
(-0.0463635 0 0)
(-0.0259225 0 0)
(-0.0732821 0 0)
(-0.399802 0 0)
(-0.188086 0 0)
(-0.222179 0 0)
(-0.178099 0 0)
(-0.342696 0 0)
(-0.274539 0 0)
(0.0132148 0 0)
(-0.0186346 0 0)
(0.038119 0 0)
(-0.27957 0 0)
(-0.1334 0 0)
(-0.301976 0 0)
(-0.0700813 0 0)
(-0.122554 0 0)
(-0.101927 0 0)
(0.122859 0 0)
(0.258345 0 0)
(0.121823 0 0)
(-0.0583658 0 0)
(-0.109078 0 0)
(-0.145787 0 0)
(-0.294939 0 0)
(-0.272614 0 0)
(-0.294833 0 0)
(0.0254476 0 0)
(0.0279885 0 0)
(0.0129562 0 0)
(0.0777784 0 0)
(0.110541 0 0)
(0.132068 0 0)
(-0.0620307 0 0)
(-0.102973 0 0)
(-0.0943881 0 0)
(-0.209565 0 0)
(-0.255916 0 0)
(-0.206144 0 0)
(0.0733664 0 0)
(0.0811432 0 0)
(0.0751488 0 0)
(-0.0466555 0 0)
(-0.137376 0 0)
(-0.112418 0 0)
(-0.0307268 0 0)
(-0.0424494 0 0)
(-0.129901 0 0)
(0.0946462 0 0)
(0.113378 0 0)
(0.104686 0 0)
(0.0549698 0 0)
(0.080945 0 0)
(0.0409795 0 0)
(-0.0637952 0 0)
(-0.00933472 0 0)
(-0.0863531 0 0)
(-0.0522832 0 0)
(-0.0677395 0 0)
(-0.0236963 0 0)
(-0.183661 0 0)
(-0.273008 0 0)
(-0.287234 0 0)
(0.063614 0 0)
(0.108565 0 0)
(0.0910395 0 0)
(-0.0223195 0 0)
(0.00707925 0 0)
(0.0916525 0 0)
(-0.28651 0 0)
(-0.220179 0 0)
(-0.228948 0 0)
(-0.0966066 0 0)
(-0.0141799 0 0)
(-0.0520976 0 0)
(-0.104907 0 0)
(-0.202149 0 0)
(-0.204548 0 0)
(0.0792684 0 0)
(0.117941 0 0)
(0.0900758 0 0)
(-0.146908 0 0)
(-0.142294 0 0)
(-0.11445 0 0)
(-0.0256627 0 0)
(-0.0904945 0 0)
(0.0194604 0 0)
(-0.208158 0 0)
(-0.21596 0 0)
(-0.190669 0 0)
(0.049559 0 0)
(0.19602 0 0)
(0.158052 0 0)
(-0.0294087 0 0)
(-0.10174 0 0)
(-0.0854395 0 0)
(-0.215722 0 0)
(-0.355044 0 0)
(-0.210581 0 0)
(-0.0222978 0 0)
(-0.0958582 0 0)
(0.0231957 0 0)
(-0.120431 0 0)
(-0.0639802 0 0)
(-0.146168 0 0)
(-0.118357 0 0)
(-0.201091 0 0)
(-0.207161 0 0)
(-0.0442255 0 0)
(-0.0886388 0 0)
(-0.113341 0 0)
(0.0555391 0 0)
(-0.0204314 0 0)
(0.0653304 0 0)
(-0.109662 0 0)
(-0.0198364 0 0)
(-0.167577 0 0)
(-0.217664 0 0)
(-0.11524 0 0)
(-0.219256 0 0)
(0.00212123 0 0)
(0.054623 0 0)
(0.0137904 0 0)
(0.00966703 0 0)
(-0.086627 0 0)
(0.00689115 0 0)
(-0.132277 0 0)
(-0.106163 0 0)
(-0.158798 0 0)
(0.0137222 0 0)
(0.106533 0 0)
(0.0025077 0 0)
(0.101635 0 0)
(-0.0320958 0 0)
(-0.115353 0 0)
(-0.219883 0 0)
(-0.0656546 0 0)
(-0.127054 0 0)
(0.0169876 0 0)
(0.0758898 0 0)
(-0.0100422 0 0)
(-0.0873497 0 0)
(-0.0551028 0 0)
(-0.0765809 0 0)
(0.026589 0 0)
(0.0211958 0 0)
(0.0405562 0 0)
(0.0141439 0 0)
(0.141569 0 0)
(0.00331458 0 0)
(0.0983426 0 0)
(-0.0256429 0 0)
(0.155349 0 0)
(-0.177427 0 0)
(-0.179793 0 0)
(-0.157966 0 0)
(-0.095743 0 0)
(-0.117764 0 0)
(-0.0767426 0 0)
(0.0491046 0 0)
(0.0580334 0 0)
(0.0716478 0 0)
(-0.00217072 0 0)
(0.015364 0 0)
(0.0140913 0 0)
(-0.199678 0 0)
(-0.00457245 0 0)
(-0.100205 0 0)
(-0.00160314 0 0)
(0.00899178 0 0)
(-0.0687585 0 0)
(-0.0115874 0 0)
(-0.130807 0 0)
(0.00932386 0 0)
(-0.0207427 0 0)
(0.143104 0 0)
(-0.034943 0 0)
(0.0129949 0 0)
(-0.128796 0 0)
(0.0104494 0 0)
(-0.244318 0 0)
(-0.253855 0 0)
(-0.303523 0 0)
(-0.135352 0 0)
(-0.0999674 0 0)
(-0.115444 0 0)
(-0.119407 0 0)
(-0.19583 0 0)
(-0.196921 0 0)
(-0.152131 0 0)
(-0.13741 0 0)
(-0.178327 0 0)
(0.0311595 0 0)
(-0.0244719 0 0)
(0.0892611 0 0)
(-0.0304814 0 0)
(0.107577 0 0)
(0.0799814 0 0)
(-0.109997 0 0)
(-0.137655 0 0)
(-0.166269 0 0)
(-0.168373 0 0)
(-0.19039 0 0)
(-0.197647 0 0)
(-3.60991 0 0)
(-4.4008 0 0)
(-1.77404 0 0)
(-0.0214504 0 0)
(-0.0138667 0 0)
(-0.0397998 0 0)
(-0.0263338 0 0)
(-0.0870835 0 0)
(-0.0765547 0 0)
(-0.193831 0 0)
(-0.275517 0 0)
(-0.265256 0 0)
(-0.00534949 0 0)
(0.0182506 0 0)
(-0.111628 0 0)
(0.976654 0 0)
(1.1691 0 0)
(1.10913 0 0)
(-0.0820255 0 0)
(0.0425958 0 0)
(0.035731 0 0)
(-0.0493345 0 0)
(0.137435 0 0)
(0.0437608 0 0)
(0.00924062 0 0)
(-0.0834498 0 0)
(0.127905 0 0)
(-3.41829 0 0)
(-3.68662 0 0)
(-4.5748 0 0)
(-0.0142289 0 0)
(0.0811269 0 0)
(-0.00133638 0 0)
(-0.0327431 0 0)
(0.0945768 0 0)
(0.140831 0 0)
(0.0236843 0 0)
(-0.028673 0 0)
(-0.0687179 0 0)
(0.032373 0 0)
(-0.0612109 0 0)
(0.0264192 0 0)
(-0.147781 0 0)
(-0.0842244 0 0)
(-0.103426 0 0)
(-0.110458 0 0)
(0.124625 0 0)
(-0.0372359 0 0)
(-0.0659937 0 0)
(-0.114373 0 0)
(-0.14312 0 0)
(-0.0212915 0 0)
(0.0280558 0 0)
(0.00229305 0 0)
(-0.12965 0 0)
(-0.151475 0 0)
(-0.161189 0 0)
(-0.0063018 0 0)
(-0.104911 0 0)
(-0.0153532 0 0)
(0.0235832 0 0)
(0.116631 0 0)
(0.121697 0 0)
(-0.238538 0 0)
(-0.218876 0 0)
(-0.242173 0 0)
(-0.0990119 0 0)
(-0.177424 0 0)
(-0.194491 0 0)
(-0.0223961 0 0)
(-0.160552 0 0)
(-0.0471097 0 0)
(0.457549 0 0)
(0.664932 0 0)
(0.667254 0 0)
(-0.0350003 0 0)
(0.101006 0 0)
(0.0863151 0 0)
(-0.161876 0 0)
(-0.0753726 0 0)
(-0.0706873 0 0)
(-0.14411 0 0)
(-0.201638 0 0)
(-0.297073 0 0)
(0.715745 0 0)
(0.678029 0 0)
(0.623466 0 0)
(-0.155735 0 0)
(-0.291572 0 0)
(-0.22996 0 0)
(-0.021102 0 0)
(-0.016837 0 0)
(-0.0807929 0 0)
(-0.316968 0 0)
(-0.225791 0 0)
(-0.294966 0 0)
(-0.229012 0 0)
(-0.328229 0 0)
(-0.376654 0 0)
(-0.0524852 0 0)
(0.121898 0 0)
(0.0474373 0 0)
(-0.0352965 0 0)
(-0.0105656 0 0)
(-0.00666673 0 0)
(-0.0552286 0 0)
(0.0444058 0 0)
(0.0182833 0 0)
(0.0231985 0 0)
(-0.10571 0 0)
(0.016303 0 0)
(-0.181546 0 0)
(-0.196646 0 0)
(-0.24134 0 0)
(-0.0199084 0 0)
(-0.027412 0 0)
(-0.040999 0 0)
(-0.12745 0 0)
(-0.233289 0 0)
(-0.306544 0 0)
(0.000492737 0 0)
(-0.105216 0 0)
(0.0170996 0 0)
(0.0214033 0 0)
(0.134191 0 0)
(0.0316209 0 0)
(-0.698268 0 0)
(-0.519202 0 0)
(-0.567367 0 0)
(0.00171704 0 0)
(-0.126627 0 0)
(-0.0903618 0 0)
(0.0229429 0 0)
(0.0286473 0 0)
(0.00227395 0 0)
(0.025328 0 0)
(-0.300095 0 0)
(-0.194016 0 0)
(-0.0784971 0 0)
(-0.171795 0 0)
(-0.0472283 0 0)
(0.051849 0 0)
(-0.106097 0 0)
(-0.00324636 0 0)
(0.0882973 0 0)
(-0.112732 0 0)
(-0.0218596 0 0)
(0.02337 0 0)
(0.104444 0 0)
(-0.0166544 0 0)
(-0.287324 0 0)
(-0.16122 0 0)
(-0.249186 0 0)
(0.0112844 0 0)
(0.0478402 0 0)
(-0.00827451 0 0)
(0.015397 0 0)
(0.132061 0 0)
(0.0204878 0 0)
(-0.0199603 0 0)
(-0.0240215 0 0)
(0.00255703 0 0)
(-0.12159 0 0)
(-0.176374 0 0)
(-0.1546 0 0)
(-0.0138803 0 0)
(-0.101634 0 0)
(-0.0640917 0 0)
(-0.0022531 0 0)
(-0.111152 0 0)
(-0.232144 0 0)
(0.0127395 0 0)
(0.0770768 0 0)
(-0.00512391 0 0)
(0.624233 0 0)
(0.664624 0 0)
(0.808399 0 0)
(-0.140545 0 0)
(-0.217527 0 0)
(-0.189636 0 0)
(-0.150319 0 0)
(-0.110192 0 0)
(-0.0743691 0 0)
(-0.164758 0 0)
(-0.0297511 0 0)
(-0.104128 0 0)
(-0.0339082 0 0)
(-0.0782048 0 0)
(-0.0403107 0 0)
(0.00610295 0 0)
(0.0394715 0 0)
(0.0662779 0 0)
(0.0362306 0 0)
(0.0607904 0 0)
(0.0212805 0 0)
(0.000592361 0 0)
(0.0254903 0 0)
(-0.0179702 0 0)
(-0.0594126 0 0)
(-0.0578432 0 0)
(-0.0384645 0 0)
(0.960689 0 0)
(0.810506 0 0)
(0.841586 0 0)
(0.0263346 0 0)
(-0.00777987 0 0)
(-0.00813664 0 0)
(-0.222737 0 0)
(-0.290263 0 0)
(-0.305638 0 0)
(-0.0333485 0 0)
(-0.0491181 0 0)
(-0.0347593 0 0)
(-0.0194978 0 0)
(0.0428156 0 0)
(0.0740303 0 0)
(-0.101385 0 0)
(-0.225353 0 0)
(-0.174108 0 0)
(0.00691688 0 0)
(0.00629961 0 0)
(0.00031844 0 0)
(-0.0962455 0 0)
(-0.0620231 0 0)
(-0.0882833 0 0)
(1.00393 0 0)
(0.884993 0 0)
(1.05009 0 0)
(-0.150762 0 0)
(-0.154195 0 0)
(-0.111629 0 0)
(0.0588047 0 0)
(0.0497911 0 0)
(0.0754189 0 0)
(-0.0260529 0 0)
(0.0111709 0 0)
(-0.0275731 0 0)
(0.70039 0 0)
(0.911581 0 0)
(0.807901 0 0)
(0.0228674 0 0)
(0.030511 0 0)
(-0.00784616 0 0)
(0.0542432 0 0)
(0.0367494 0 0)
(0.0482119 0 0)
(0.027432 0 0)
(-0.0393335 0 0)
(-0.0337693 0 0)
(0.00344872 0 0)
(0.0271628 0 0)
(0.0130377 0 0)
(0.0418584 0 0)
(0.0460383 0 0)
(0.0134384 0 0)
(0.091161 0 0)
(0.0183419 0 0)
(0.0268869 0 0)
(-0.0963546 0 0)
(-0.077849 0 0)
(-0.138234 0 0)
(1.2432 0 0)
(1.03073 0 0)
(1.17519 0 0)
(-0.0419225 0 0)
(0.0156662 0 0)
(0.00415897 0 0)
(-0.117089 0 0)
(-0.18558 0 0)
(-0.223463 0 0)
(0.0436386 0 0)
(-0.025986 0 0)
(0.00140409 0 0)
(-0.277505 0 0)
(-0.127141 0 0)
(-0.0821548 0 0)
(0.0168103 0 0)
(0.0164954 0 0)
(0.0455743 0 0)
(-0.0562594 0 0)
(0.0323741 0 0)
(0.0221314 0 0)
(-0.0254146 0 0)
(-0.0254767 0 0)
(0.0426766 0 0)
(-0.0776596 0 0)
(-0.0525361 0 0)
(-0.168435 0 0)
(-0.047719 0 0)
(0.0824794 0 0)
(0.0243927 0 0)
(-0.173044 0 0)
(-0.223634 0 0)
(-0.310145 0 0)
(0.0804831 0 0)
(-0.0232521 0 0)
(-0.0262722 0 0)
(0.289612 0 0)
(0.0993124 0 0)
(0.0889103 0 0)
(-0.0243023 0 0)
(-0.111281 0 0)
(-0.0551971 0 0)
(-0.0164868 0 0)
(-0.0730821 0 0)
(-0.153041 0 0)
(0.0583169 0 0)
(-0.0580177 0 0)
(-0.0249807 0 0)
(0.0287034 0 0)
(0.111038 0 0)
(0.00412275 0 0)
(-0.0022981 0 0)
(0.00590487 0 0)
(0.0125455 0 0)
(-0.11816 0 0)
(-0.203152 0 0)
(-0.148436 0 0)
(-0.0876586 0 0)
(-0.0885641 0 0)
(-0.135016 0 0)
(-0.26669 0 0)
(-0.16005 0 0)
(-0.135629 0 0)
(0.0506217 0 0)
(-0.102052 0 0)
(0.0145936 0 0)
(-0.00971196 0 0)
(0.100391 0 0)
(-0.0065929 0 0)
(-0.117719 0 0)
(-0.163516 0 0)
(-0.136101 0 0)
(-0.0433249 0 0)
(0.0864652 0 0)
(-0.0483981 0 0)
(-0.0223002 0 0)
(-0.174503 0 0)
(-0.00567411 0 0)
(0.0251983 0 0)
(0.0776001 0 0)
(-0.0608975 0 0)
(-0.128132 0 0)
(-0.268037 0 0)
(-0.211102 0 0)
(-0.225609 0 0)
(-0.2784 0 0)
(-0.308196 0 0)
(-0.0792174 0 0)
(-0.109222 0 0)
(-0.178522 0 0)
(-0.0194123 0 0)
(-0.129634 0 0)
(0.00349848 0 0)
(-0.0221629 0 0)
(-0.160073 0 0)
(-0.186712 0 0)
(-0.230424 0 0)
(-0.209939 0 0)
(-0.281714 0 0)
(-0.088243 0 0)
(-0.167314 0 0)
(-0.167918 0 0)
(-0.225162 0 0)
(-0.132224 0 0)
(-0.131606 0 0)
(-0.149592 0 0)
(-0.0815897 0 0)
(-0.236669 0 0)
(-0.148116 0 0)
(-0.24407 0 0)
(-0.224437 0 0)
(-0.017598 0 0)
(-0.121263 0 0)
(-0.106985 0 0)
(-0.246031 0 0)
(-0.203721 0 0)
(-0.190478 0 0)
(-0.217633 0 0)
(-0.282004 0 0)
(-0.252852 0 0)
(-0.0278627 0 0)
(0.0287319 0 0)
(-0.0944373 0 0)
(-0.238802 0 0)
(-0.255305 0 0)
(-0.255644 0 0)
(-0.0688086 0 0)
(-0.0707717 0 0)
(-0.0775678 0 0)
(-0.0104172 0 0)
(-0.135756 0 0)
(-0.101817 0 0)
(-0.121006 0 0)
(-0.158789 0 0)
(-0.17802 0 0)
(-0.0204 0 0)
(0.0778732 0 0)
(-0.0782239 0 0)
(0.0150036 0 0)
(-0.189408 0 0)
(-0.105856 0 0)
(-0.169048 0 0)
(0.113694 0 0)
(-0.0602797 0 0)
(-0.134238 0 0)
(0.0549082 0 0)
(0.107966 0 0)
(-0.0522505 0 0)
(-0.126184 0 0)
(0.0517665 0 0)
(-0.0723685 0 0)
(0.0664986 0 0)
(0.0323691 0 0)
(-0.156846 0 0)
(-0.094274 0 0)
(-0.0620634 0 0)
(-0.181429 0 0)
(-0.0604007 0 0)
(-0.0625602 0 0)
(-0.149637 0 0)
(-0.139011 0 0)
(-0.20844 0 0)
(-0.108918 0 0)
(-0.15912 0 0)
(-0.173325 0 0)
(-0.0107902 0 0)
(0.1435 0 0)
(0.0935032 0 0)
(-0.194659 0 0)
(-0.25546 0 0)
(-0.238432 0 0)
(0.0340251 0 0)
(-0.110758 0 0)
(-0.0502949 0 0)
(-0.052309 0 0)
(-0.0809345 0 0)
(-0.0523676 0 0)
(-0.215692 0 0)
(-0.185118 0 0)
(-0.236347 0 0)
(-0.151348 0 0)
(-0.0521621 0 0)
(-0.0513961 0 0)
(0.0336086 0 0)
(-0.0783151 0 0)
(-0.0984923 0 0)
(-0.175696 0 0)
(-0.126663 0 0)
(-0.142121 0 0)
(-0.154339 0 0)
(-0.0974901 0 0)
(-0.123251 0 0)
(0.0208593 0 0)
(0.163544 0 0)
(0.210895 0 0)
(-0.164366 0 0)
(-0.183707 0 0)
(-0.244961 0 0)
(0.02555 0 0)
(0.0331049 0 0)
(0.0353202 0 0)
(-0.159594 0 0)
(-0.190339 0 0)
(-0.216914 0 0)
(0.0464266 0 0)
(-0.0950351 0 0)
(-0.00272295 0 0)
(0.0701422 0 0)
(-0.0972095 0 0)
(0.0169043 0 0)
(-0.226769 0 0)
(-0.204772 0 0)
(-0.223918 0 0)
(-0.212277 0 0)
(-0.279273 0 0)
(-0.230018 0 0)
(-0.0725959 0 0)
(0.114562 0 0)
(0.0293616 0 0)
(-0.0505879 0 0)
(-0.0815214 0 0)
(-0.0580659 0 0)
(-0.160966 0 0)
(-0.164805 0 0)
(-0.204059 0 0)
(-0.0341453 0 0)
(-0.0773142 0 0)
(-0.0190931 0 0)
(-0.20963 0 0)
(-0.205322 0 0)
(-0.213055 0 0)
(-0.153177 0 0)
(-0.0498309 0 0)
(-0.0533417 0 0)
(-0.0221656 0 0)
(-0.136767 0 0)
(-0.120972 0 0)
(-0.0325077 0 0)
(0.115701 0 0)
(0.0738156 0 0)
(-0.204475 0 0)
(-0.233653 0 0)
(-0.269516 0 0)
(-0.141882 0 0)
(-0.192759 0 0)
(-0.168345 0 0)
(-0.0306205 0 0)
(0.0443067 0 0)
(0.048903 0 0)
(-0.224459 0 0)
(-0.194707 0 0)
(-0.182641 0 0)
(-0.170138 0 0)
(-0.254208 0 0)
(-0.215643 0 0)
(-0.0261078 0 0)
(-0.0795028 0 0)
(-0.0678907 0 0)
(-0.169544 0 0)
(-0.136913 0 0)
(-0.160936 0 0)
(-0.0222491 0 0)
(0.0244471 0 0)
(-0.0831437 0 0)
(-0.0174913 0 0)
(0.0805659 0 0)
(-0.050537 0 0)
(-0.141986 0 0)
(-0.183645 0 0)
(-0.18887 0 0)
(-0.0265415 0 0)
(-0.179123 0 0)
(-0.160095 0 0)
(-0.112365 0 0)
(-0.0412255 0 0)
(-0.0385821 0 0)
(-0.185668 0 0)
(-0.19552 0 0)
(-0.227346 0 0)
(0.150245 0 0)
(0.258618 0 0)
(0.0433388 0 0)
(-0.00322724 0 0)
(0.128435 0 0)
(0.056833 0 0)
(-0.149899 0 0)
(-0.169267 0 0)
(-0.209144 0 0)
(-0.0233588 0 0)
(-0.135597 0 0)
(0.0313824 0 0)
(-0.175241 0 0)
(-0.192706 0 0)
(-0.209788 0 0)
(-0.195929 0 0)
(-0.276686 0 0)
(-0.235816 0 0)
(-0.167309 0 0)
(-0.129424 0 0)
(-0.132238 0 0)
(-0.0205699 0 0)
(-0.149478 0 0)
(-0.0668408 0 0)
(-0.0393129 0 0)
(-0.0861914 0 0)
(-0.0761699 0 0)
(-0.14542 0 0)
(-0.164774 0 0)
(-0.171856 0 0)
(-0.202652 0 0)
(-0.177072 0 0)
(-0.171333 0 0)
(-0.197449 0 0)
(-0.18318 0 0)
(-0.219555 0 0)
(-0.142167 0 0)
(-0.115911 0 0)
(-0.164399 0 0)
(-0.191469 0 0)
(-0.160346 0 0)
(-0.232704 0 0)
(-0.118551 0 0)
(-0.127191 0 0)
(-0.132827 0 0)
(-0.170837 0 0)
(-0.126127 0 0)
(-0.124064 0 0)
(-0.00297985 0 0)
(0.110205 0 0)
(-0.0113665 0 0)
(0.00209527 0 0)
(-0.109839 0 0)
(-0.0416995 0 0)
(-0.00886453 0 0)
(0.086061 0 0)
(0.0235607 0 0)
(-0.198244 0 0)
(-0.201644 0 0)
(-0.226236 0 0)
(-0.195135 0 0)
(-0.209454 0 0)
(-0.210837 0 0)
(0.0013321 0 0)
(0.0106045 0 0)
(-0.0346248 0 0)
(0.00560717 0 0)
(0.0858941 0 0)
(0.0809651 0 0)
(0.0810064 0 0)
(-0.0979395 0 0)
(-0.0221815 0 0)
(-0.0127899 0 0)
(-0.0185414 0 0)
(0.0190651 0 0)
(0.00509762 0 0)
(-0.0726302 0 0)
(-0.0865912 0 0)
(-0.0242463 0 0)
(0.0405149 0 0)
(-0.0141143 0 0)
(-0.198074 0 0)
(-0.139147 0 0)
(-0.201234 0 0)
(0.012685 0 0)
(-0.0648052 0 0)
(-0.0405594 0 0)
(-0.0832887 0 0)
(-0.130752 0 0)
(-0.0868967 0 0)
(0.0154559 0 0)
(0.018635 0 0)
(-0.0271402 0 0)
(-0.226309 0 0)
(-0.198455 0 0)
(-0.220839 0 0)
(0.0037713 0 0)
(0.0663204 0 0)
(0.018197 0 0)
(-0.131305 0 0)
(-0.147933 0 0)
(-0.127283 0 0)
(-0.211674 0 0)
(-0.249599 0 0)
(-0.228967 0 0)
(0.00946488 0 0)
(-0.0350105 0 0)
(-0.0324355 0 0)
(0.00933949 0 0)
(0.0561828 0 0)
(0.033429 0 0)
(0.0662705 0 0)
(0.000320528 0 0)
(0.0048172 0 0)
(0.0107256 0 0)
(0.0757409 0 0)
(0.0691303 0 0)
(0.00381598 0 0)
(-0.0226503 0 0)
(0.0514069 0 0)
(-0.0124161 0 0)
(0.00140736 0 0)
(-0.0387054 0 0)
(-0.0131482 0 0)
(0.000376314 0 0)
(0.00425099 0 0)
(0.0240784 0 0)
(0.0219433 0 0)
(0.0262958 0 0)
(-0.118127 0 0)
(-0.121809 0 0)
(-0.146207 0 0)
(-0.00950636 0 0)
(0.0367374 0 0)
(0.010402 0 0)
(0.00342635 0 0)
(-0.0459015 0 0)
(0.00586542 0 0)
(-0.120366 0 0)
(-0.104165 0 0)
(-0.090826 0 0)
(-0.106236 0 0)
(-0.0451726 0 0)
(-0.104201 0 0)
(-0.206157 0 0)
(-0.203749 0 0)
(-0.202815 0 0)
(-0.207634 0 0)
(-0.221235 0 0)
(-0.240325 0 0)
(-0.0395405 0 0)
(0.115616 0 0)
(0.056212 0 0)
(-0.212577 0 0)
(-0.212093 0 0)
(-0.240229 0 0)
(-0.0161097 0 0)
(0.00941775 0 0)
(0.00953362 0 0)
(-0.131845 0 0)
(-0.136954 0 0)
(-0.13258 0 0)
(-0.197828 0 0)
(-0.21453 0 0)
(-0.224544 0 0)
(-0.198676 0 0)
(-0.184615 0 0)
(-0.187906 0 0)
(0.0173913 0 0)
(0.0121586 0 0)
(0.0626686 0 0)
(-0.0778773 0 0)
(-0.0463693 0 0)
(-0.0654984 0 0)
(0.0260513 0 0)
(0.112582 0 0)
(-0.0177571 0 0)
(-0.0995476 0 0)
(-0.16062 0 0)
(-0.174742 0 0)
(0.0449875 0 0)
(-0.00370505 0 0)
(0.00562127 0 0)
(-0.189248 0 0)
(-0.244594 0 0)
(-0.246536 0 0)
(-0.240383 0 0)
(-0.248187 0 0)
(-0.246376 0 0)
(-0.00269955 0 0)
(-0.0871857 0 0)
(-0.0248988 0 0)
(-0.107066 0 0)
(-0.0729565 0 0)
(-0.147287 0 0)
(0.31161 0 0)
(0.108576 0 0)
(0.107182 0 0)
(-0.0510683 0 0)
(-0.0399388 0 0)
(-0.0353295 0 0)
(0.0134926 0 0)
(0.0172771 0 0)
(-0.00195326 0 0)
(-0.00473338 0 0)
(0.0921704 0 0)
(-0.0304991 0 0)
(-0.0761813 0 0)
(-0.0544891 0 0)
(-0.0617783 0 0)
(1.06164 0 0)
(0.909564 0 0)
(0.88135 0 0)
(-0.0284309 0 0)
(0.110332 0 0)
(-0.0255272 0 0)
(-0.193107 0 0)
(-0.178982 0 0)
(-0.211231 0 0)
(-0.236198 0 0)
(-0.258051 0 0)
(-0.246799 0 0)