/*--------------------------------*- C++ -*----------------------------------*\
| =========                 |                                                 |
| \\      /  F ield         | OpenFOAM: The Open Source CFD Toolbox           |
|  \\    /   O peration     | Version:  v2012                                 |
|   \\  /    A nd           | Website:  www.openfoam.com                      |
|    \\/     M anipulation  |                                                 |
\*---------------------------------------------------------------------------*/
FoamFile
{
    version     2.0;
    format      ascii;
    class       volVectorField;
    location    "0";
    object      Ulifty;
}
// * * * * * * * * * * * * * * * * * * * * * * * * * * * * * * * * * * * * * //

dimensions      [0 1 -1 0 0 0 0];


internalField   nonuniform List<vector> 
228296
(
(0 0.441929 0)
(0 0.486554 0)
(0 0.42849 0)
(0 0.726971 0)
(0 0.579826 0)
(0 0.665417 0)
(0 0.40465 0)
(0 0.419809 0)
(0 0.371227 0)
(0 -0.287712 0)
(0 -0.177582 0)
(0 -0.297074 0)
(0 0.377621 0)
(0 0.391676 0)
(0 0.45971 0)
(0 1.00874 0)
(0 1.07644 0)
(0 0.97278 0)
(0 0.38451 0)
(0 0.41088 0)
(0 0.401144 0)
(0 0.949511 0)
(0 0.770752 0)
(0 0.831373 0)
(0 0.699942 0)
(0 0.805318 0)
(0 0.80433 0)
(0 0.517687 0)
(0 0.606218 0)
(0 0.579471 0)
(0 0.5273 0)
(0 0.693792 0)
(0 0.647857 0)
(0 0.335592 0)
(0 0.321667 0)
(0 0.257971 0)
(0 0.434638 0)
(0 0.336932 0)
(0 0.344249 0)
(0 0.291962 0)
(0 0.297048 0)
(0 0.286765 0)
(0 0.390513 0)
(0 0.405289 0)
(0 0.41923 0)
(0 0.635443 0)
(0 0.686443 0)
(0 0.594091 0)
(0 -0.265257 0)
(0 -0.156279 0)
(0 -0.238317 0)
(0 0.367012 0)
(0 0.28976 0)
(0 0.306318 0)
(0 0.745956 0)
(0 0.863532 0)
(0 0.950526 0)
(0 0.523378 0)
(0 0.469062 0)
(0 0.564249 0)
(0 0.499188 0)
(0 0.544781 0)
(0 0.471309 0)
(0 -0.127386 0)
(0 -0.0630906 0)
(0 -0.169016 0)
(0 0.384446 0)
(0 0.380313 0)
(0 0.437186 0)
(0 0.876616 0)
(0 0.915117 0)
(0 0.978936 0)
(0 1.91514 0)
(0 1.79476 0)
(0 1.89487 0)
(0 -0.35857 0)
(0 -0.267652 0)
(0 -0.362377 0)
(0 0.500048 0)
(0 0.53938 0)
(0 0.511294 0)
(0 0.302165 0)
(0 0.293397 0)
(0 0.299876 0)
(0 0.337407 0)
(0 0.418233 0)
(0 0.350087 0)
(0 0.345109 0)
(0 0.361766 0)
(0 0.43298 0)
(0 0.613471 0)
(0 0.484647 0)
(0 0.539625 0)
(0 0.760759 0)
(0 0.821632 0)
(0 0.931641 0)
(0 0.919833 0)
(0 0.961084 0)
(0 1.00903 0)
(0 0.180591 0)
(0 0.169874 0)
(0 0.16686 0)
(0 1.83519 0)
(0 1.9343 0)
(0 1.94795 0)
(0 0.825327 0)
(0 0.857313 0)
(0 0.988454 0)
(0 -0.145851 0)
(0 -0.0675752 0)
(0 -0.0929021 0)
(0 1.09404 0)
(0 0.931973 0)
(0 0.969677 0)
(0 -0.127233 0)
(0 -0.137981 0)
(0 -0.205831 0)
(0 0.502363 0)
(0 0.54696 0)
(0 0.557398 0)
(0 1.4136 0)
(0 1.17493 0)
(0 1.25367 0)
(0 0.479077 0)
(0 0.614068 0)
(0 0.574036 0)
(0 0.743099 0)
(0 0.671326 0)
(0 0.765134 0)
(0 0.324387 0)
(0 0.407765 0)
(0 0.437637 0)
(0 -0.202621 0)
(0 -0.085682 0)
(0 -0.130523 0)
(0 0.585533 0)
(0 0.537073 0)
(0 0.697711 0)
(0 -0.250452 0)
(0 -0.215515 0)
(0 -0.154041 0)
(0 0.389168 0)
(0 0.323181 0)
(0 0.302232 0)
(0 0.473216 0)
(0 0.369031 0)
(0 0.494085 0)
(0 -0.223088 0)
(0 -0.428208 0)
(0 -0.281394 0)
(0 0.438603 0)
(0 0.455697 0)
(0 0.453471 0)
(0 0.444119 0)
(0 0.430423 0)
(0 0.51105 0)
(0 1.9264 0)
(0 1.7624 0)
(0 1.82209 0)
(0 -0.218645 0)
(0 -0.418904 0)
(0 -0.232288 0)
(0 -0.265526 0)
(0 -0.326204 0)
(0 -0.310318 0)
(0 0.431934 0)
(0 0.254444 0)
(0 0.330049 0)
(0 -0.348619 0)
(0 -0.27081 0)
(0 -0.137882 0)
(0 0.869704 0)
(0 0.831862 0)
(0 0.905488 0)
(0 0.588446 0)
(0 0.740979 0)
(0 0.704584 0)
(0 1.8574 0)
(0 1.63025 0)
(0 1.78487 0)
(0 0.758854 0)
(0 0.919733 0)
(0 0.991993 0)
(0 0.908212 0)
(0 0.963088 0)
(0 0.960956 0)
(0 0.299482 0)
(0 0.31024 0)
(0 0.242231 0)
(0 0.308984 0)
(0 0.321075 0)
(0 0.400911 0)
(0 0.422553 0)
(0 0.465691 0)
(0 0.458716 0)
(0 0.796941 0)
(0 0.596429 0)
(0 0.614647 0)
(0 0.815744 0)
(0 1.16106 0)
(0 1.04164 0)
(0 0.435114 0)
(0 0.331107 0)
(0 0.401572 0)
(0 0.824851 0)
(0 1.00316 0)
(0 0.930308 0)
(0 0.41927 0)
(0 0.446541 0)
(0 0.481768 0)
(0 0.300359 0)
(0 0.396915 0)
(0 0.37008 0)
(0 0.572532 0)
(0 0.531705 0)
(0 0.584063 0)
(0 0.45165 0)
(0 0.498768 0)
(0 0.536568 0)
(0 0.475217 0)
(0 0.506563 0)
(0 0.530336 0)
(0 -0.230916 0)
(0 -0.233811 0)
(0 -0.284264 0)
(0 -0.192751 0)
(0 -0.189341 0)
(0 -0.182682 0)
(0 -0.247646 0)
(0 -0.191563 0)
(0 -0.224689 0)
(0 -0.253141 0)
(0 -0.240003 0)
(0 -0.199468 0)
(0 -0.289745 0)
(0 -0.259516 0)
(0 -0.346553 0)
(0 0.830194 0)
(0 0.899679 0)
(0 0.950166 0)
(0 1.01404 0)
(0 0.914336 0)
(0 0.923544 0)
(0 0.269059 0)
(0 0.176559 0)
(0 0.235813 0)
(0 0.000425585 0)
(0 0.0797233 0)
(0 0.0799263 0)
(0 0.29213 0)
(0 0.332788 0)
(0 0.26528 0)
(0 0.0300718 0)
(0 0.0431914 0)
(0 0.0838112 0)
(0 -0.173461 0)
(0 -0.223775 0)
(0 -0.167098 0)
(0 -0.0705932 0)
(0 0.0599022 0)
(0 -0.0585595 0)
(0 0.783764 0)
(0 0.892698 0)
(0 0.713159 0)
(0 -0.0148279 0)
(0 -0.0256409 0)
(0 -0.00895071 0)
(0 0.452733 0)
(0 0.483609 0)
(0 0.479047 0)
(0 -0.0504952 0)
(0 -0.0332788 0)
(0 -0.0110482 0)
(0 0.98559 0)
(0 1.36435 0)
(0 1.26956 0)
(0 0.50241 0)
(0 0.466664 0)
(0 0.496874 0)
(0 0.575809 0)
(0 0.718872 0)
(0 0.656789 0)
(0 0.0134985 0)
(0 0.133256 0)
(0 0.10951 0)
(0 -0.104892 0)
(0 -0.177586 0)
(0 -0.180622 0)
(0 0.202251 0)
(0 0.178452 0)
(0 0.179268 0)
(0 0.664055 0)
(0 0.883367 0)
(0 0.900878 0)
(0 0.631151 0)
(0 0.539095 0)
(0 0.51399 0)
(0 0.0765301 0)
(0 0.0781937 0)
(0 0.131493 0)
(0 0.44615 0)
(0 0.4443 0)
(0 0.468519 0)
(0 0.47828 0)
(0 0.504105 0)
(0 0.570096 0)
(0 -0.265689 0)
(0 -0.279485 0)
(0 -0.302568 0)
(0 0.699596 0)
(0 0.885712 0)
(0 0.95489 0)
(0 0.716838 0)
(0 0.746368 0)
(0 0.737688 0)
(0 0.398172 0)
(0 0.374607 0)
(0 0.371678 0)
(0 0.353241 0)
(0 0.527544 0)
(0 0.482007 0)
(0 0.833067 0)
(0 0.760347 0)
(0 0.697625 0)
(0 -0.253579 0)
(0 -0.183268 0)
(0 -0.194709 0)
(0 0.266632 0)
(0 0.199869 0)
(0 0.211728 0)
(0 0.43721 0)
(0 0.419277 0)
(0 0.454787 0)
(0 -0.151628 0)
(0 -0.176255 0)
(0 -0.106152 0)
(0 -0.186266 0)
(0 -0.111801 0)
(0 -0.184475 0)
(0 -0.127716 0)
(0 -0.113594 0)
(0 -0.14389 0)
(0 0.386891 0)
(0 0.484172 0)
(0 0.460876 0)
(0 0.281423 0)
(0 0.334107 0)
(0 0.239386 0)
(0 0.00783871 0)
(0 -0.0217929 0)
(0 0.0216803 0)
(0 0.440401 0)
(0 0.485972 0)
(0 0.497604 0)
(0 1.84723 0)
(0 1.6905 0)
(0 1.76144 0)
(0 0.990991 0)
(0 1.07605 0)
(0 0.97264 0)
(0 -0.0067259 0)
(0 -0.142046 0)
(0 -0.0959002 0)
(0 1.04519 0)
(0 1.08033 0)
(0 1.19057 0)
(0 1.09675 0)
(0 0.992976 0)
(0 1.18175 0)
(0 0.493583 0)
(0 0.519384 0)
(0 0.460019 0)
(0 1.03176 0)
(0 1.22014 0)
(0 1.36071 0)
(0 0.686978 0)
(0 0.530224 0)
(0 0.607347 0)
(0 0.471609 0)
(0 0.458175 0)
(0 0.467753 0)
(0 -0.244035 0)
(0 -0.180654 0)
(0 -0.178075 0)
(0 -0.0803792 0)
(0 -0.153063 0)
(0 -0.133472 0)
(0 0.405292 0)
(0 0.283001 0)
(0 0.450608 0)
(0 -0.122668 0)
(0 -0.0639987 0)
(0 -0.0741965 0)
(0 0.469155 0)
(0 0.389981 0)
(0 0.402215 0)
(0 -0.27618 0)
(0 -0.208353 0)
(0 -0.347184 0)
(0 0.861273 0)
(0 1.05987 0)
(0 1.01608 0)
(0 0.353219 0)
(0 0.430619 0)
(0 0.360991 0)
(0 0.363251 0)
(0 0.440344 0)
(0 0.390736 0)
(0 -0.0228598 0)
(0 -0.0577766 0)
(0 -0.0449053 0)
(0 -0.187886 0)
(0 -0.120509 0)
(0 -0.161996 0)
(0 0.494838 0)
(0 0.370429 0)
(0 0.420581 0)
(0 1.15288 0)
(0 1.20791 0)
(0 1.30379 0)
(0 0.433489 0)
(0 0.387783 0)
(0 0.441192 0)
(0 0.399564 0)
(0 0.438866 0)
(0 0.462569 0)
(0 -0.0650431 0)
(0 -0.122618 0)
(0 -0.145792 0)
(0 -0.170453 0)
(0 -0.0807703 0)
(0 -0.0803277 0)
(0 -0.243446 0)
(0 -0.243014 0)
(0 -0.266516 0)
(0 -0.0838075 0)
(0 -0.121641 0)
(0 -0.127373 0)
(0 -0.199807 0)
(0 -0.10432 0)
(0 -0.12373 0)
(0 1.0166 0)
(0 1.21184 0)
(0 1.15359 0)
(0 0.326426 0)
(0 0.430778 0)
(0 0.428924 0)
(0 0.357078 0)
(0 0.317827 0)
(0 0.240964 0)
(0 0.420181 0)
(0 0.47456 0)
(0 0.444143 0)
(0 -0.0836124 0)
(0 -0.1554 0)
(0 -0.213127 0)
(0 1.25793 0)
(0 1.64443 0)
(0 1.27288 0)
(0 0.959224 0)
(0 0.869294 0)
(0 0.997912 0)
(0 -0.235305 0)
(0 -0.02813 0)
(0 -0.208621 0)
(0 -0.178454 0)
(0 -0.103343 0)
(0 -0.134813 0)
(0 0.647453 0)
(0 0.700425 0)
(0 0.750795 0)
(0 0.551027 0)
(0 0.648665 0)
(0 0.675587 0)
(0 0.401222 0)
(0 0.384453 0)
(0 0.38378 0)
(0 -0.162241 0)
(0 -0.101809 0)
(0 -0.129525 0)
(0 0.969201 0)
(0 1.02751 0)
(0 0.95961 0)
(0 0.709064 0)
(0 0.662841 0)
(0 0.724797 0)
(0 0.399704 0)
(0 0.424477 0)
(0 0.47467 0)
(0 -0.0615653 0)
(0 -0.1723 0)
(0 -0.215859 0)
(0 -0.240227 0)
(0 -0.150784 0)
(0 -0.197143 0)
(0 -0.0803851 0)
(0 -0.210374 0)
(0 -0.194902 0)
(0 -0.144988 0)
(0 -0.215438 0)
(0 -0.265748 0)
(0 -0.158758 0)
(0 0.0193124 0)
(0 -0.0384377 0)
(0 0.486405 0)
(0 0.377824 0)
(0 0.391449 0)
(0 -0.165919 0)
(0 0.00692263 0)
(0 -0.034597 0)
(0 0.895131 0)
(0 0.841889 0)
(0 0.888359 0)
(0 -0.167176 0)
(0 -0.204899 0)
(0 -0.274955 0)
(0 -0.23851 0)
(0 -0.157862 0)
(0 -0.218019 0)
(0 1.0973 0)
(0 1.21637 0)
(0 1.35147 0)
(0 -0.123915 0)
(0 -0.133476 0)
(0 -0.149951 0)
(0 -0.210788 0)
(0 -0.116239 0)
(0 -0.13391 0)
(0 0.299474 0)
(0 0.236751 0)
(0 0.192494 0)
(0 -0.247405 0)
(0 -0.276732 0)
(0 -0.231937 0)
(0 -0.275282 0)
(0 -0.168437 0)
(0 -0.202969 0)
(0 -0.192382 0)
(0 -0.174923 0)
(0 -0.1212 0)
(0 0.38525 0)
(0 0.403379 0)
(0 0.469428 0)
(0 0.38821 0)
(0 0.421067 0)
(0 0.527325 0)
(0 1.32534 0)
(0 0.88237 0)
(0 0.828941 0)
(0 -0.194388 0)
(0 -0.348692 0)
(0 -0.295559 0)
(0 -0.264807 0)
(0 -0.278413 0)
(0 -0.278393 0)
(0 1.07393 0)
(0 1.35638 0)
(0 1.28612 0)
(0 -0.254866 0)
(0 -0.344764 0)
(0 -0.33952 0)
(0 -0.248084 0)
(0 -0.402864 0)
(0 -0.35824 0)
(0 1.7795 0)
(0 1.64914 0)
(0 1.71591 0)
(0 -0.214895 0)
(0 -0.140978 0)
(0 -0.199886 0)
(0 -0.261385 0)
(0 -0.381277 0)
(0 -0.318251 0)
(0 -0.28243 0)
(0 -0.308283 0)
(0 -0.351019 0)
(0 1.30276 0)
(0 1.25762 0)
(0 1.39656 0)
(0 0.612584 0)
(0 0.537455 0)
(0 0.608444 0)
(0 0.272978 0)
(0 0.387606 0)
(0 0.437774 0)
(0 1.73579 0)
(0 1.45184 0)
(0 1.65582 0)
(0 -0.231754 0)
(0 -0.201523 0)
(0 -0.31065 0)
(0 -0.279063 0)
(0 -0.32552 0)
(0 -0.315568 0)
(0 -0.288761 0)
(0 -0.500511 0)
(0 -0.308416 0)
(0 0.441133 0)
(0 0.355989 0)
(0 0.386367 0)
(0 0.431913 0)
(0 0.38033 0)
(0 0.457561 0)
(0 0.675575 0)
(0 0.911263 0)
(0 0.856917 0)
(0 -0.428872 0)
(0 -0.573953 0)
(0 -0.690375 0)
(0 1.23776 0)
(0 1.0259 0)
(0 1.28253 0)
(0 -0.251229 0)
(0 -0.323325 0)
(0 -0.347498 0)
(0 -0.180964 0)
(0 -0.211621 0)
(0 -0.282635 0)
(0 0.277647 0)
(0 0.408664 0)
(0 0.406113 0)
(0 -0.250841 0)
(0 -0.326132 0)
(0 -0.251161 0)
(0 0.350799 0)
(0 0.454242 0)
(0 0.36053 0)
(0 0.279219 0)
(0 0.246186 0)
(0 0.281776 0)
(0 0.405327 0)
(0 0.323674 0)
(0 0.365875 0)
(0 -0.231414 0)
(0 -0.307022 0)
(0 -0.315189 0)
(0 0.294113 0)
(0 0.340361 0)
(0 0.316382 0)
(0 -0.215566 0)
(0 -0.213253 0)
(0 -0.1528 0)
(0 -0.2813 0)
(0 -0.287925 0)
(0 -0.306061 0)
(0 0.42983 0)
(0 0.33268 0)
(0 0.361944 0)
(0 0.672809 0)
(0 0.922468 0)
(0 0.972184 0)
(0 -0.242274 0)
(0 -0.284133 0)
(0 -0.273965 0)
(0 1.11635 0)
(0 0.774426 0)
(0 0.808679 0)
(0 0.90403 0)
(0 1.0835 0)
(0 1.09396 0)
(0 -0.208904 0)
(0 -0.178456 0)
(0 -0.191261 0)
(0 -0.243197 0)
(0 -0.141758 0)
(0 -0.207333 0)
(0 -0.146669 0)
(0 -0.235702 0)
(0 -0.22037 0)
(0 0.555476 0)
(0 0.46622 0)
(0 0.480546 0)
(0 -0.246273 0)
(0 -0.277633 0)
(0 -0.250973 0)
(0 0.298925 0)
(0 0.417589 0)
(0 0.397043 0)
(0 -0.305353 0)
(0 -0.207969 0)
(0 -0.199661 0)
(0 -0.254428 0)
(0 -0.309202 0)
(0 -0.367706 0)
(0 -0.255999 0)
(0 -0.229808 0)
(0 -0.292692 0)
(0 0.398399 0)
(0 0.552876 0)
(0 0.454834 0)
(0 0.918571 0)
(0 0.721986 0)
(0 0.74127 0)
(0 -0.246317 0)
(0 -0.282454 0)
(0 -0.345054 0)
(0 1.07229 0)
(0 0.71296 0)
(0 0.867056 0)
(0 0.433502 0)
(0 0.436065 0)
(0 0.461685 0)
(0 0.961202 0)
(0 1.20163 0)
(0 1.1993 0)
(0 -0.0255137 0)
(0 0.00520313 0)
(0 -0.0572463 0)
(0 0.0252526 0)
(0 -0.00166628 0)
(0 0.0146063 0)
(0 0.451297 0)
(0 0.453934 0)
(0 0.427907 0)
(0 -0.0756036 0)
(0 -0.0262069 0)
(0 -0.0518719 0)
(0 -0.0535571 0)
(0 0.0283727 0)
(0 -0.000730115 0)
(0 0.345015 0)
(0 0.310701 0)
(0 0.325131 0)
(0 -0.074124 0)
(0 -0.0558518 0)
(0 -0.0757102 0)
(0 0.426271 0)
(0 0.371105 0)
(0 0.357096 0)
(0 0.709259 0)
(0 0.745774 0)
(0 0.771153 0)
(0 0.848625 0)
(0 0.675696 0)
(0 0.694968 0)
(0 0.955801 0)
(0 1.12961 0)
(0 1.0141 0)
(0 -0.0840137 0)
(0 -0.0588432 0)
(0 -0.102492 0)
(0 0.42846 0)
(0 0.560579 0)
(0 0.47137 0)
(0 0.555899 0)
(0 0.563383 0)
(0 0.544104 0)
(0 0.690292 0)
(0 0.762639 0)
(0 0.668219 0)
(0 0.343575 0)
(0 0.326223 0)
(0 0.318676 0)
(0 0.313167 0)
(0 0.316634 0)
(0 0.314367 0)
(0 -0.0405962 0)
(0 -0.0722118 0)
(0 -0.0678636 0)
(0 0.669327 0)
(0 0.534322 0)
(0 0.550986 0)
(0 0.235998 0)
(0 0.296139 0)
(0 0.274546 0)
(0 0.683157 0)
(0 0.893955 0)
(0 1.15472 0)
(0 0.360349 0)
(0 0.388379 0)
(0 0.366605 0)
(0 0.148053 0)
(0 0.0803225 0)
(0 0.179456 0)
(0 -0.0651697 0)
(0 -0.0375245 0)
(0 -0.0454091 0)
(0 0.34782 0)
(0 0.480921 0)
(0 0.468084 0)
(0 -0.155531 0)
(0 -0.113245 0)
(0 -0.225411 0)
(0 0.601965 0)
(0 0.613421 0)
(0 0.647951 0)
(0 0.368021 0)
(0 0.387618 0)
(0 0.359249 0)
(0 0.749291 0)
(0 0.668476 0)
(0 0.679297 0)
(0 0.747549 0)
(0 0.680454 0)
(0 0.842086 0)
(0 -0.0787588 0)
(0 0.00947259 0)
(0 -0.121822 0)
(0 0.0504729 0)
(0 0.120679 0)
(0 0.167229 0)
(0 -0.143568 0)
(0 -0.14092 0)
(0 -0.140682 0)
(0 -0.0754535 0)
(0 -0.0943372 0)
(0 -0.107276 0)
(0 -0.133047 0)
(0 -0.0034685 0)
(0 -0.16722 0)
(0 0.344764 0)
(0 0.292377 0)
(0 0.394734 0)
(0 -0.133577 0)
(0 -0.202003 0)
(0 -0.172177 0)
(0 -0.203892 0)
(0 -0.111144 0)
(0 -0.266367 0)
(0 0.426077 0)
(0 0.415836 0)
(0 0.480662 0)
(0 0.365499 0)
(0 0.368255 0)
(0 0.449692 0)
(0 -0.169844 0)
(0 -0.232008 0)
(0 -0.192402 0)
(0 0.641711 0)
(0 0.591609 0)
(0 0.634372 0)
(0 0.623352 0)
(0 0.712672 0)
(0 0.596546 0)
(0 -0.1807 0)
(0 -0.067792 0)
(0 -0.204901 0)
(0 0.369425 0)
(0 0.330556 0)
(0 0.338597 0)
(0 -0.256806 0)
(0 -0.169061 0)
(0 -0.325846 0)
(0 0.663404 0)
(0 0.592699 0)
(0 0.674597 0)
(0 0.678719 0)
(0 0.696373 0)
(0 0.657894 0)
(0 0.701499 0)
(0 0.696659 0)
(0 0.642604 0)
(0 0.600723 0)
(0 0.668372 0)
(0 0.641934 0)
(0 -0.167434 0)
(0 -0.287256 0)
(0 -0.179283 0)
(0 -0.199056 0)
(0 -0.175367 0)
(0 -0.16906 0)
(0 -0.187856 0)
(0 -0.30004 0)
(0 -0.234866 0)
(0 0.35182 0)
(0 0.334151 0)
(0 0.354753 0)
(0 -0.210296 0)
(0 -0.142186 0)
(0 -0.290422 0)
(0 -0.234178 0)
(0 -0.133175 0)
(0 -0.268141 0)
(0 0.718784 0)
(0 0.675634 0)
(0 0.674122 0)
(0 0.773298 0)
(0 0.803732 0)
(0 0.7239 0)
(0 0.349237 0)
(0 0.34118 0)
(0 0.313096 0)
(0 0.778951 0)
(0 0.892446 0)
(0 0.841739 0)
(0 -0.208123 0)
(0 -0.382027 0)
(0 -0.291787 0)
(0 0.653496 0)
(0 0.532793 0)
(0 0.701973 0)
(0 -0.206424 0)
(0 -0.337473 0)
(0 -0.281264 0)
(0 0.891211 0)
(0 0.779245 0)
(0 0.752794 0)
(0 -0.208449 0)
(0 -0.195626 0)
(0 -0.0899329 0)
(0 -0.215581 0)
(0 -0.0633172 0)
(0 -0.170421 0)
(0 -0.164489 0)
(0 0.00012549 0)
(0 -0.176639 0)
(0 0.80122 0)
(0 0.76428 0)
(0 0.784794 0)
(0 -0.155741 0)
(0 -0.213952 0)
(0 -0.176912 0)
(0 0.296168 0)
(0 0.303171 0)
(0 0.297565 0)
(0 -0.220817 0)
(0 -0.121362 0)
(0 -0.0893236 0)
(0 -0.176563 0)
(0 -0.388464 0)
(0 -0.291859 0)
(0 -0.2128 0)
(0 -0.152494 0)
(0 -0.363098 0)
(0 -0.168298 0)
(0 -0.341623 0)
(0 -0.175312 0)
(0 -0.150992 0)
(0 -0.211734 0)
(0 -0.152821 0)
(0 0.809636 0)
(0 0.645273 0)
(0 0.751409 0)
(0 -0.270194 0)
(0 -0.412402 0)
(0 -0.33329 0)
(0 -0.280357 0)
(0 -0.203359 0)
(0 -0.31483 0)
(0 0.633492 0)
(0 0.630289 0)
(0 0.555255 0)
(0 -0.187917 0)
(0 -0.362069 0)
(0 -0.291153 0)
(0 0.272999 0)
(0 0.285878 0)
(0 0.341024 0)
(0 -0.215794 0)
(0 -0.26647 0)
(0 -0.22738 0)
(0 0.285794 0)
(0 0.287499 0)
(0 0.279343 0)
(0 -0.22131 0)
(0 -0.13079 0)
(0 -0.289736 0)
(0 0.628374 0)
(0 0.533878 0)
(0 0.584296 0)
(0 -0.277282 0)
(0 -0.248301 0)
(0 -0.238267 0)
(0 0.316008 0)
(0 0.304993 0)
(0 0.307603 0)
(0 0.531983 0)
(0 0.605731 0)
(0 0.598303 0)
(0 -0.215633 0)
(0 -0.12647 0)
(0 -0.269812 0)
(0 0.275685 0)
(0 0.283257 0)
(0 0.293568 0)
(0 0.268105 0)
(0 0.271113 0)
(0 0.29311 0)
(0 0.277637 0)
(0 0.278927 0)
(0 0.273494 0)
(0 -0.255881 0)
(0 -0.456016 0)
(0 -0.421567 0)
(0 0.270218 0)
(0 0.316432 0)
(0 0.253752 0)
(0 0.558474 0)
(0 0.582961 0)
(0 0.622074 0)
(0 -0.237384 0)
(0 -0.369064 0)
(0 -0.390525 0)
(0 -0.301243 0)
(0 -0.155384 0)
(0 -0.277784 0)
(0 0.611895 0)
(0 0.585481 0)
(0 0.635454 0)
(0 -0.323704 0)
(0 -0.218973 0)
(0 -0.400205 0)
(0 0.522291 0)
(0 0.691327 0)
(0 0.747516 0)
(0 0.713346 0)
(0 0.748385 0)
(0 0.732887 0)
(0 -0.250141 0)
(0 -0.382993 0)
(0 -0.324185 0)
(0 0.368786 0)
(0 0.371375 0)
(0 0.371154 0)
(0 -0.302232 0)
(0 -0.450812 0)
(0 -0.379111 0)
(0 -0.325936 0)
(0 -0.24266 0)
(0 -0.385789 0)
(0 0.388633 0)
(0 0.356197 0)
(0 0.503807 0)
(0 1.06416 0)
(0 0.985403 0)
(0 1.17265 0)
(0 0.394109 0)
(0 0.390575 0)
(0 0.365018 0)
(0 0.763107 0)
(0 0.776903 0)
(0 0.82593 0)
(0 -0.221878 0)
(0 -0.266447 0)
(0 -0.243931 0)
(0 0.66709 0)
(0 0.817196 0)
(0 0.839222 0)
(0 -0.32535 0)
(0 -0.262781 0)
(0 -0.302758 0)
(0 -0.237422 0)
(0 -0.149559 0)
(0 -0.274408 0)
(0 -0.265235 0)
(0 -0.253149 0)
(0 -0.400609 0)
(0 -0.321734 0)
(0 -0.483576 0)
(0 -0.452372 0)
(0 0.82415 0)
(0 1.08398 0)
(0 0.992002 0)
(0 0.433966 0)
(0 0.390875 0)
(0 0.409178 0)
(0 0.38672 0)
(0 0.426643 0)
(0 0.439063 0)
(0 0.422181 0)
(0 0.418344 0)
(0 0.428553 0)
(0 -0.230678 0)
(0 -0.185271 0)
(0 -0.255712 0)
(0 -0.234134 0)
(0 -0.313011 0)
(0 -0.325124 0)
(0 0.340242 0)
(0 0.318946 0)
(0 0.343643 0)
(0 0.343516 0)
(0 0.287704 0)
(0 0.291787 0)
(0 0.571133 0)
(0 0.670686 0)
(0 0.627288 0)
(0 -0.287242 0)
(0 -0.296967 0)
(0 -0.336614 0)
(0 -0.265574 0)
(0 -0.367079 0)
(0 -0.364347 0)
(0 0.574631 0)
(0 0.630864 0)
(0 0.566693 0)
(0 -0.208002 0)
(0 -0.236934 0)
(0 -0.276281 0)
(0 1.07863 0)
(0 1.00827 0)
(0 1.21324 0)
(0 0.167016 0)
(0 0.237499 0)
(0 0.278164 0)
(0 -0.256036 0)
(0 -0.362416 0)
(0 -0.32744 0)
(0 -0.226611 0)
(0 -0.212486 0)
(0 -0.272866 0)
(0 0.671248 0)
(0 1.29838 0)
(0 1.95055 0)
(0 -0.182611 0)
(0 -0.287324 0)
(0 -0.222648 0)
(0 -0.0583132 0)
(0 -0.10852 0)
(0 -0.119653 0)
(0 -0.0835421 0)
(0 -0.113271 0)
(0 -0.107315 0)
(0 -0.105197 0)
(0 -0.0938699 0)
(0 -0.136769 0)
(0 0.269884 0)
(0 0.248932 0)
(0 0.257448 0)
(0 -0.0980127 0)
(0 -0.106462 0)
(0 -0.135693 0)
(0 0.38315 0)
(0 0.351323 0)
(0 0.33236 0)
(0 -0.144233 0)
(0 -0.158077 0)
(0 -0.14737 0)
(0 0.36165 0)
(0 0.322577 0)
(0 0.342388 0)
(0 -0.119595 0)
(0 -0.112522 0)
(0 -0.103277 0)
(0 0.333332 0)
(0 0.370101 0)
(0 0.372773 0)
(0 0.250667 0)
(0 0.227071 0)
(0 0.258827 0)
(0 0.290148 0)
(0 0.226954 0)
(0 0.272688 0)
(0 -0.108001 0)
(0 -0.0557227 0)
(0 -0.112384 0)
(0 1.59379 0)
(0 1.53984 0)
(0 1.52993 0)
(0 -0.0619487 0)
(0 -0.135095 0)
(0 -0.121628 0)
(0 0.309619 0)
(0 0.234968 0)
(0 0.248944 0)
(0 0.769018 0)
(0 0.889155 0)
(0 0.747848 0)
(0 1.55825 0)
(0 1.39462 0)
(0 1.64539 0)
(0 0.391717 0)
(0 0.227089 0)
(0 0.342921 0)
(0 -0.154973 0)
(0 -0.16709 0)
(0 -0.164509 0)
(0 0.816249 0)
(0 0.682313 0)
(0 0.760536 0)
(0 0.528079 0)
(0 0.57506 0)
(0 0.651686 0)
(0 -0.149927 0)
(0 -0.107215 0)
(0 -0.135807 0)
(0 -0.18558 0)
(0 -0.188322 0)
(0 -0.176631 0)
(0 -0.149573 0)
(0 -0.0863453 0)
(0 -0.111945 0)
(0 -0.132 0)
(0 -0.0381512 0)
(0 -0.162557 0)
(0 0.535777 0)
(0 0.554115 0)
(0 0.575029 0)
(0 -0.116876 0)
(0 -0.121284 0)
(0 -0.0979698 0)
(0 0.377802 0)
(0 0.295624 0)
(0 0.276978 0)
(0 -0.10317 0)
(0 -0.0398285 0)
(0 -0.121639 0)
(0 -0.092327 0)
(0 -0.192715 0)
(0 -0.111318 0)
(0 -0.107239 0)
(0 0.0101019 0)
(0 0.10203 0)
(0 -0.131251 0)
(0 -0.251488 0)
(0 -0.215167 0)
(0 -0.144248 0)
(0 -0.138808 0)
(0 -0.187701 0)
(0 1.42441 0)
(0 1.39197 0)
(0 1.28018 0)
(0 0.162955 0)
(0 0.157082 0)
(0 0.214431 0)
(0 -0.200587 0)
(0 -0.0350851 0)
(0 -0.15252 0)
(0 0.454782 0)
(0 0.646424 0)
(0 0.613859 0)
(0 -0.191463 0)
(0 -0.135224 0)
(0 -0.265968 0)
(0 0.269798 0)
(0 0.378427 0)
(0 0.313472 0)
(0 -0.162482 0)
(0 -0.204112 0)
(0 -0.147942 0)
(0 -0.133571 0)
(0 -0.285687 0)
(0 -0.157255 0)
(0 0.218906 0)
(0 0.243589 0)
(0 0.198484 0)
(0 0.304255 0)
(0 0.214863 0)
(0 0.250903 0)
(0 -0.173525 0)
(0 -0.291263 0)
(0 -0.245003 0)
(0 0.53922 0)
(0 0.467528 0)
(0 0.399364 0)
(0 -0.17488 0)
(0 -0.106475 0)
(0 -0.259396 0)
(0 1.40437 0)
(0 1.31093 0)
(0 1.3451 0)
(0 0.360718 0)
(0 0.412834 0)
(0 0.424748 0)
(0 0.331993 0)
(0 0.230836 0)
(0 0.261717 0)
(0 0.287255 0)
(0 0.246363 0)
(0 0.291469 0)
(0 -0.175888 0)
(0 -0.310683 0)
(0 -0.260362 0)
(0 -0.162105 0)
(0 -0.277701 0)
(0 -0.294948 0)
(0 -0.143843 0)
(0 -0.220167 0)
(0 -0.208762 0)
(0 -0.214179 0)
(0 -0.181433 0)
(0 -0.326553 0)
(0 -0.230848 0)
(0 -0.286529 0)
(0 -0.264049 0)
(0 1.04422 0)
(0 0.978212 0)
(0 1.0405 0)
(0 -0.182529 0)
(0 -0.241076 0)
(0 -0.289149 0)
(0 0.863596 0)
(0 0.895358 0)
(0 1.09274 0)
(0 -0.1561 0)
(0 -0.290313 0)
(0 -0.281157 0)
(0 0.30822 0)
(0 0.371269 0)
(0 0.410284 0)
(0 0.295512 0)
(0 0.384048 0)
(0 0.364895 0)
(0 -0.163602 0)
(0 -0.341442 0)
(0 -0.309676 0)
(0 0.401397 0)
(0 0.341511 0)
(0 0.323422 0)
(0 1.10093 0)
(0 1.32791 0)
(0 1.35631 0)
(0 0.284662 0)
(0 0.303957 0)
(0 0.28376 0)
(0 -0.207444 0)
(0 -0.354451 0)
(0 -0.407241 0)
(0 -0.217197 0)
(0 -0.326927 0)
(0 -0.36275 0)
(0 1.05006 0)
(0 1.18115 0)
(0 1.11552 0)
(0 -0.230228 0)
(0 -0.199145 0)
(0 -0.341592 0)
(0 -0.231736 0)
(0 -0.294924 0)
(0 -0.32986 0)
(0 -0.276538 0)
(0 -0.11074 0)
(0 -0.210167 0)
(0 -0.203205 0)
(0 -0.299492 0)
(0 -0.241417 0)
(0 -0.240356 0)
(0 -0.214556 0)
(0 -0.273758 0)
(0 -0.268832 0)
(0 -0.343528 0)
(0 -0.324478 0)
(0 0.811497 0)
(0 0.753717 0)
(0 0.74573 0)
(0 0.800014 0)
(0 0.616794 0)
(0 0.665713 0)
(0 -0.204988 0)
(0 -0.324258 0)
(0 -0.353076 0)
(0 0.766036 0)
(0 0.731748 0)
(0 0.697231 0)
(0 -0.243063 0)
(0 -0.410844 0)
(0 -0.38001 0)
(0 0.646169 0)
(0 0.689057 0)
(0 0.708297 0)
(0 -0.227995 0)
(0 -0.260383 0)
(0 -0.237363 0)
(0 -0.201183 0)
(0 -0.294911 0)
(0 -0.322348 0)
(0 -0.152152 0)
(0 -0.190476 0)
(0 -0.299754 0)
(0 0.21582 0)
(0 0.230123 0)
(0 0.276917 0)
(0 -0.194723 0)
(0 -0.346471 0)
(0 -0.299863 0)
(0 0.530151 0)
(0 0.585907 0)
(0 0.642433 0)
(0 -0.272381 0)
(0 -0.323026 0)
(0 -0.379409 0)
(0 0.413365 0)
(0 0.449732 0)
(0 0.459566 0)
(0 -0.167399 0)
(0 -0.099368 0)
(0 -0.200993 0)
(0 0.305615 0)
(0 0.324078 0)
(0 0.232415 0)
(0 -0.249993 0)
(0 -0.374677 0)
(0 -0.392191 0)
(0 -0.234876 0)
(0 -0.193788 0)
(0 -0.306685 0)
(0 0.741107 0)
(0 0.763428 0)
(0 0.86971 0)
(0 0.713728 0)
(0 0.609563 0)
(0 0.710646 0)
(0 0.224397 0)
(0 0.184288 0)
(0 0.193139 0)
(0 0.711642 0)
(0 0.647884 0)
(0 0.699799 0)
(0 -0.276308 0)
(0 -0.410554 0)
(0 -0.337516 0)
(0 -0.215096 0)
(0 -0.304235 0)
(0 -0.244445 0)
(0 0.350433 0)
(0 0.349196 0)
(0 0.332391 0)
(0 -0.187401 0)
(0 -0.305428 0)
(0 -0.194406 0)
(0 -0.228671 0)
(0 -0.109316 0)
(0 -0.240884 0)
(0 -0.18961 0)
(0 -0.198118 0)
(0 -0.319473 0)
(0 0.737113 0)
(0 0.759124 0)
(0 0.737644 0)
(0 0.529715 0)
(0 0.556314 0)
(0 0.610503 0)
(0 0.269339 0)
(0 0.288992 0)
(0 0.226957 0)
(0 -0.200976 0)
(0 -0.139396 0)
(0 -0.212105 0)
(0 0.180036 0)
(0 0.323521 0)
(0 0.293749 0)
(0 0.534487 0)
(0 0.565522 0)
(0 0.632193 0)
(0 0.732822 0)
(0 0.641636 0)
(0 0.65909 0)
(0 0.672917 0)
(0 0.615422 0)
(0 0.657214 0)
(0 0.693254 0)
(0 0.847643 0)
(0 0.641636 0)
(0 0.695433 0)
(0 0.700277 0)
(0 0.657347 0)
(0 -0.278161 0)
(0 -0.292811 0)
(0 -0.303405 0)
(0 0.553235 0)
(0 0.508027 0)
(0 0.476874 0)
(0 0.507446 0)
(0 0.608952 0)
(0 0.588346 0)
(0 -0.264891 0)
(0 -0.274066 0)
(0 -0.262503 0)
(0 0.54408 0)
(0 0.561823 0)
(0 0.607906 0)
(0 0.301436 0)
(0 0.293953 0)
(0 0.283318 0)
(0 -0.26039 0)
(0 -0.270749 0)
(0 -0.297159 0)
(0 0.720099 0)
(0 0.630833 0)
(0 0.645152 0)
(0 -0.222972 0)
(0 -0.214189 0)
(0 -0.188517 0)
(0 -0.231854 0)
(0 -0.220976 0)
(0 -0.235225 0)
(0 -0.138908 0)
(0 -0.158162 0)
(0 -0.145168 0)
(0 -0.112511 0)
(0 -0.22375 0)
(0 -0.29735 0)
(0 -0.120598 0)
(0 -0.10588 0)
(0 -0.199539 0)
(0 -0.195888 0)
(0 -0.248675 0)
(0 -0.190516 0)
(0 0.335097 0)
(0 0.356801 0)
(0 0.345821 0)
(0 0.255985 0)
(0 0.287068 0)
(0 0.280444 0)
(0 0.333434 0)
(0 0.33138 0)
(0 0.402795 0)
(0 0.733183 0)
(0 0.582963 0)
(0 0.64474 0)
(0 -0.188439 0)
(0 -0.219847 0)
(0 -0.231695 0)
(0 0.508402 0)
(0 0.641969 0)
(0 0.58067 0)
(0 -0.151352 0)
(0 -0.160072 0)
(0 -0.180437 0)
(0 0.332066 0)
(0 0.300192 0)
(0 0.330007 0)
(0 0.542632 0)
(0 0.491293 0)
(0 0.605523 0)
(0 0.260418 0)
(0 0.300631 0)
(0 0.302722 0)
(0 -0.145058 0)
(0 -0.183666 0)
(0 -0.200666 0)
(0 0.541057 0)
(0 0.67186 0)
(0 0.616133 0)
(0 0.328227 0)
(0 0.22561 0)
(0 0.316646 0)
(0 -0.135201 0)
(0 -0.193704 0)
(0 -0.180297 0)
(0 0.465061 0)
(0 0.452621 0)
(0 0.571364 0)
(0 -0.137161 0)
(0 -0.138062 0)
(0 -0.153269 0)
(0 0.512981 0)
(0 0.617804 0)
(0 0.62083 0)
(0 -0.134335 0)
(0 -0.0944085 0)
(0 -0.128022 0)
(0 -0.238851 0)
(0 -0.272955 0)
(0 -0.28929 0)
(0 0.513802 0)
(0 0.588477 0)
(0 0.612913 0)
(0 0.548782 0)
(0 0.532013 0)
(0 0.672198 0)
(0 -0.174044 0)
(0 -0.157013 0)
(0 -0.19001 0)
(0 0.347191 0)
(0 0.304608 0)
(0 0.331068 0)
(0 0.477702 0)
(0 0.446389 0)
(0 0.521823 0)
(0 -0.177441 0)
(0 -0.188688 0)
(0 -0.192008 0)
(0 0.591193 0)
(0 0.524018 0)
(0 0.596372 0)
(0 0.270013 0)
(0 0.326802 0)
(0 0.322328 0)
(0 -0.157741 0)
(0 -0.182364 0)
(0 -0.182957 0)
(0 -0.123625 0)
(0 -0.276569 0)
(0 -0.234327 0)
(0 0.375236 0)
(0 0.438565 0)
(0 0.463382 0)
(0 0.372659 0)
(0 0.480233 0)
(0 0.440617 0)
(0 -0.115584 0)
(0 -0.172211 0)
(0 -0.184997 0)
(0 0.494546 0)
(0 0.533244 0)
(0 0.55301 0)
(0 0.513833 0)
(0 0.472012 0)
(0 0.511422 0)
(0 0.420861 0)
(0 0.325507 0)
(0 0.362495 0)
(0 0.457672 0)
(0 0.441925 0)
(0 0.519396 0)
(0 -0.193114 0)
(0 -0.1888 0)
(0 -0.240109 0)
(0 -0.230007 0)
(0 -0.186767 0)
(0 -0.299764 0)
(0 0.445215 0)
(0 0.527852 0)
(0 0.565907 0)
(0 -0.1487 0)
(0 -0.239623 0)
(0 -0.228919 0)
(0 0.329896 0)
(0 0.373671 0)
(0 0.372727 0)
(0 0.615322 0)
(0 0.520701 0)
(0 0.543468 0)
(0 0.453983 0)
(0 0.43018 0)
(0 0.645263 0)
(0 -0.172165 0)
(0 -0.340025 0)
(0 -0.252479 0)
(0 0.503333 0)
(0 0.578527 0)
(0 0.489669 0)
(0 -0.181682 0)
(0 -0.0960138 0)
(0 -0.270349 0)
(0 0.350955 0)
(0 0.369789 0)
(0 0.442558 0)
(0 0.365924 0)
(0 0.49096 0)
(0 0.437815 0)
(0 0.540101 0)
(0 0.397154 0)
(0 0.495914 0)
(0 -0.188405 0)
(0 -0.320146 0)
(0 -0.260542 0)
(0 0.418985 0)
(0 0.330625 0)
(0 0.388943 0)
(0 0.364465 0)
(0 0.428658 0)
(0 0.479882 0)
(0 0.449128 0)
(0 0.486072 0)
(0 0.521441 0)
(0 0.532603 0)
(0 0.511531 0)
(0 0.520918 0)
(0 0.352265 0)
(0 0.373902 0)
(0 0.372545 0)
(0 0.3926 0)
(0 0.340764 0)
(0 0.470166 0)
(0 0.390839 0)
(0 0.450102 0)
(0 0.402912 0)
(0 0.438571 0)
(0 0.417073 0)
(0 0.432799 0)
(0 -0.229913 0)
(0 -0.146268 0)
(0 -0.280103 0)
(0 -0.225055 0)
(0 -0.353363 0)
(0 -0.265891 0)
(0 -0.218661 0)
(0 -0.118024 0)
(0 -0.18768 0)
(0 0.49967 0)
(0 0.444034 0)
(0 0.581553 0)
(0 0.426882 0)
(0 0.535083 0)
(0 0.521695 0)
(0 -0.197717 0)
(0 -0.232789 0)
(0 -0.309858 0)
(0 -0.153732 0)
(0 -0.268378 0)
(0 -0.261561 0)
(0 -0.402792 0)
(0 -0.151428 0)
(0 -0.206412 0)
(0 -0.187318 0)
(0 -0.212829 0)
(0 -0.187513 0)
(0 -0.205302 0)
(0 -0.332305 0)
(0 -0.342482 0)
(0 -0.256991 0)
(0 -0.167727 0)
(0 -0.304548 0)
(0 0.375667 0)
(0 0.23906 0)
(0 0.287337 0)
(0 -0.193784 0)
(0 -0.334219 0)
(0 -0.282633 0)
(0 0.418222 0)
(0 0.377451 0)
(0 0.484326 0)
(0 -0.171475 0)
(0 -0.269838 0)
(0 -0.332586 0)
(0 0.464162 0)
(0 0.451964 0)
(0 0.484031 0)
(0 -0.237297 0)
(0 -0.10386 0)
(0 -0.269302 0)
(0 0.364749 0)
(0 0.456068 0)
(0 0.486221 0)
(0 0.826406 0)
(0 0.942628 0)
(0 0.940372 0)
(0 -0.207706 0)
(0 -0.421328 0)
(0 -0.277966 0)
(0 -0.210533 0)
(0 -0.0408873 0)
(0 -0.190017 0)
(0 -0.222843 0)
(0 -0.349264 0)
(0 -0.329052 0)
(0 -0.210821 0)
(0 -0.400533 0)
(0 -0.185587 0)
(0 -0.256692 0)
(0 -0.10203 0)
(0 -0.346523 0)
(0 -0.217177 0)
(0 -0.205531 0)
(0 -0.337475 0)
(0 -0.202853 0)
(0 -0.336927 0)
(0 -0.317109 0)
(0 0.304889 0)
(0 0.311962 0)
(0 0.302614 0)
(0 0.350667 0)
(0 0.334045 0)
(0 0.314161 0)
(0 -0.227879 0)
(0 -0.432801 0)
(0 -0.332985 0)
(0 -0.211605 0)
(0 -0.0706779 0)
(0 -0.251707 0)
(0 0.395992 0)
(0 0.363511 0)
(0 0.451914 0)
(0 0.378636 0)
(0 0.495306 0)
(0 0.504479 0)
(0 0.414943 0)
(0 0.440099 0)
(0 0.419578 0)
(0 0.459241 0)
(0 0.478121 0)
(0 0.511089 0)
(0 -0.188802 0)
(0 -0.35624 0)
(0 -0.341152 0)
(0 0.441741 0)
(0 0.359135 0)
(0 0.482499 0)
(0 -0.232867 0)
(0 -0.113537 0)
(0 -0.220287 0)
(0 0.307165 0)
(0 0.36089 0)
(0 0.36511 0)
(0 0.438981 0)
(0 0.415074 0)
(0 0.460427 0)
(0 0.417983 0)
(0 0.321598 0)
(0 0.436757 0)
(0 -0.19778 0)
(0 -0.21816 0)
(0 -0.204683 0)
(0 0.341535 0)
(0 0.448593 0)
(0 0.409105 0)
(0 -0.237138 0)
(0 -0.136629 0)
(0 -0.332681 0)
(0 0.382814 0)
(0 0.374525 0)
(0 0.381401 0)
(0 -0.257538 0)
(0 -0.377017 0)
(0 -0.302085 0)
(0 0.395436 0)
(0 0.519996 0)
(0 0.534645 0)
(0 0.492574 0)
(0 0.498239 0)
(0 0.556931 0)
(0 -0.156697 0)
(0 -0.110387 0)
(0 -0.237476 0)
(0 0.378751 0)
(0 0.422944 0)
(0 0.407636 0)
(0 0.409668 0)
(0 0.478797 0)
(0 0.486386 0)
(0 -0.261764 0)
(0 -0.241249 0)
(0 -0.318686 0)
(0 0.726049 0)
(0 0.726068 0)
(0 0.782283 0)
(0 -0.254262 0)
(0 -0.159755 0)
(0 -0.312268 0)
(0 0.423755 0)
(0 0.364669 0)
(0 0.448379 0)
(0 1.82333 0)
(0 1.93728 0)
(0 2.04415 0)
(0 -0.188738 0)
(0 -0.317127 0)
(0 -0.2354 0)
(0 0.475145 0)
(0 0.476642 0)
(0 0.462984 0)
(0 0.41496 0)
(0 0.525412 0)
(0 0.617787 0)
(0 -0.288631 0)
(0 -0.243403 0)
(0 -0.293061 0)
(0 0.372867 0)
(0 0.435141 0)
(0 0.43009 0)
(0 -0.175066 0)
(0 -0.144473 0)
(0 -0.267521 0)
(0 -0.255219 0)
(0 -0.371833 0)
(0 -0.333352 0)
(0 0.398649 0)
(0 0.370257 0)
(0 0.353551 0)
(0 0.391824 0)
(0 0.562273 0)
(0 0.514071 0)
(0 0.361067 0)
(0 0.363763 0)
(0 0.426863 0)
(0 0.352928 0)
(0 0.46079 0)
(0 0.428385 0)
(0 0.467966 0)
(0 0.476238 0)
(0 0.517139 0)
(0 -0.257452 0)
(0 -0.37048 0)
(0 -0.290186 0)
(0 -0.241118 0)
(0 -0.151734 0)
(0 -0.257151 0)
(0 0.362074 0)
(0 0.533181 0)
(0 0.492505 0)
(0 0.307357 0)
(0 0.379794 0)
(0 0.443932 0)
(0 -0.245654 0)
(0 -0.324733 0)
(0 -0.317049 0)
(0 0.474744 0)
(0 0.563119 0)
(0 0.536999 0)
(0 0.424976 0)
(0 0.624912 0)
(0 0.575744 0)
(0 0.525718 0)
(0 0.615507 0)
(0 0.656699 0)
(0 -0.198205 0)
(0 -0.12777 0)
(0 -0.231181 0)
(0 0.457719 0)
(0 0.572047 0)
(0 0.559328 0)
(0 0.314934 0)
(0 0.426944 0)
(0 0.380375 0)
(0 0.51892 0)
(0 0.644291 0)
(0 0.609518 0)
(0 0.303912 0)
(0 0.375819 0)
(0 0.419988 0)
(0 0.302114 0)