/*--------------------------------*- C++ -*----------------------------------*\
| =========                 |                                                 |
| \\      /  F ield         | OpenFOAM: The Open Source CFD Toolbox           |
|  \\    /   O peration     | Version:  v2012                                 |
|   \\  /    A nd           | Website:  www.openfoam.com                      |
|    \\/     M anipulation  |                                                 |
\*---------------------------------------------------------------------------*/
FoamFile
{
    version     2.0;
    format      ascii;
    class       volVectorField;
    location    "0";
    object      Uliftz;
}
// * * * * * * * * * * * * * * * * * * * * * * * * * * * * * * * * * * * * * //

dimensions      [0 1 -1 0 0 0 0];


internalField   nonuniform List<vector> 
228296
(
(0 0 1.51396)
(0 0 1.62308)
(0 0 1.52617)
(0 0 -0.731889)
(0 0 -0.690585)
(0 0 -0.709924)
(0 0 -1.35762)
(0 0 -1.19411)
(0 0 -1.26794)
(0 0 -1.43006)
(0 0 -1.59172)
(0 0 -1.57555)
(0 0 1.31211)
(0 0 1.31541)
(0 0 1.46015)
(0 0 0.347052)
(0 0 0.364511)
(0 0 0.413649)
(0 0 1.24001)
(0 0 1.35714)
(0 0 1.34054)
(0 0 1.56827)
(0 0 1.6676)
(0 0 1.63142)
(0 0 1.68142)
(0 0 1.78152)
(0 0 1.61581)
(0 0 -0.769787)
(0 0 -0.744492)
(0 0 -0.715442)
(0 0 -0.735087)
(0 0 -0.764025)
(0 0 -0.716924)
(0 0 0.970129)
(0 0 0.906437)
(0 0 0.931369)
(0 0 0.975639)
(0 0 0.897938)
(0 0 0.922832)
(0 0 0.933522)
(0 0 0.897995)
(0 0 0.88593)
(0 0 1.38614)
(0 0 1.4336)
(0 0 1.46896)
(0 0 1.53777)
(0 0 1.22867)
(0 0 1.45201)
(0 0 -1.27586)
(0 0 -1.16346)
(0 0 -1.27849)
(0 0 0.935422)
(0 0 0.883613)
(0 0 0.912823)
(0 0 1.81447)
(0 0 1.76305)
(0 0 1.70633)
(0 0 -0.751972)
(0 0 -0.878448)
(0 0 -0.834794)
(0 0 -1.15677)
(0 0 -1.32639)
(0 0 -1.21914)
(0 0 -1.26439)
(0 0 -1.37778)
(0 0 -1.35554)
(0 0 0.939498)
(0 0 0.970026)
(0 0 0.908483)
(0 0 1.74674)
(0 0 1.5521)
(0 0 1.59711)
(0 0 0.3095)
(0 0 0.147196)
(0 0 0.147354)
(0 0 -1.53482)
(0 0 -1.3369)
(0 0 -1.52041)
(0 0 -0.70267)
(0 0 -0.654381)
(0 0 -0.693041)
(0 0 1.0245)
(0 0 0.922793)
(0 0 0.907973)
(0 0 0.940304)
(0 0 0.895846)
(0 0 0.880345)
(0 0 0.934521)
(0 0 1.10918)
(0 0 0.954147)
(0 0 -0.6738)
(0 0 -0.593036)
(0 0 -0.705788)
(0 0 1.66038)
(0 0 1.53218)
(0 0 1.66391)
(0 0 1.87539)
(0 0 1.66064)
(0 0 1.81446)
(0 0 -1.00298)
(0 0 -0.981646)
(0 0 -1.01651)
(0 0 0.18807)
(0 0 0.195074)
(0 0 0.212449)
(0 0 1.53563)
(0 0 1.40644)
(0 0 1.46345)
(0 0 -1.27147)
(0 0 -1.25736)
(0 0 -1.33807)
(0 0 0.21516)
(0 0 0.201716)
(0 0 0.182835)
(0 0 -1.32823)
(0 0 -1.22364)
(0 0 -1.3174)
(0 0 -0.72712)
(0 0 -0.78729)
(0 0 -0.824279)
(0 0 -0.531545)
(0 0 -0.668523)
(0 0 -0.589938)
(0 0 1.51117)
(0 0 1.78158)
(0 0 1.73321)
(0 0 -0.54099)
(0 0 -0.625726)
(0 0 -0.679634)
(0 0 0.905519)
(0 0 0.920182)
(0 0 0.844506)
(0 0 -1.38128)
(0 0 -1.19224)
(0 0 -1.37616)
(0 0 -0.707756)
(0 0 -0.833094)
(0 0 -0.868806)
(0 0 -1.43412)
(0 0 -1.36367)
(0 0 -1.38204)
(0 0 0.91697)
(0 0 0.892645)
(0 0 0.87268)
(0 0 1.61235)
(0 0 1.50883)
(0 0 1.77595)
(0 0 -1.13884)
(0 0 -1.19432)
(0 0 -1.30731)
(0 0 1.42607)
(0 0 1.611)
(0 0 1.50945)
(0 0 0.97701)
(0 0 0.828275)
(0 0 0.936197)
(0 0 0.252971)
(0 0 0.102805)
(0 0 0.0589163)
(0 0 -1.12154)
(0 0 -1.15728)
(0 0 -1.18657)
(0 0 -1.68299)
(0 0 -1.53864)
(0 0 -1.49136)
(0 0 -1.06018)
(0 0 -1.0413)
(0 0 -1.14032)
(0 0 -1.37874)
(0 0 -1.50125)
(0 0 -1.30901)
(0 0 1.45943)
(0 0 1.56279)
(0 0 1.52329)
(0 0 -0.596096)
(0 0 -0.553006)
(0 0 -0.675396)
(0 0 0.0545204)
(0 0 0.0752533)
(0 0 0.0953262)
(0 0 1.47858)
(0 0 1.42476)
(0 0 1.41554)
(0 0 1.76488)
(0 0 1.96889)
(0 0 2.11252)
(0 0 0.989438)
(0 0 0.98494)
(0 0 0.934954)
(0 0 0.957113)
(0 0 0.936258)
(0 0 0.988446)
(0 0 1.51619)
(0 0 1.59048)
(0 0 1.43083)
(0 0 1.44349)
(0 0 1.3215)
(0 0 1.39084)
(0 0 1.82495)
(0 0 1.96509)
(0 0 1.82685)
(0 0 1.04049)
(0 0 0.882143)
(0 0 0.92022)
(0 0 2.16586)
(0 0 2.21772)
(0 0 1.96568)
(0 0 1.34523)
(0 0 1.46232)
(0 0 1.53339)
(0 0 1.03677)
(0 0 0.980776)
(0 0 0.947524)
(0 0 -0.722286)
(0 0 -0.631055)
(0 0 -0.675343)
(0 0 -0.651883)
(0 0 -0.657115)
(0 0 -0.630984)
(0 0 1.4011)
(0 0 1.50436)
(0 0 1.68015)
(0 0 -1.40374)
(0 0 -1.23997)
(0 0 -1.39928)
(0 0 -1.28637)
(0 0 -1.33091)
(0 0 -1.35127)
(0 0 -1.32419)
(0 0 -1.19718)
(0 0 -1.40942)
(0 0 -1.28879)
(0 0 -1.2051)
(0 0 -1.37884)
(0 0 -1.36495)
(0 0 -1.23411)
(0 0 -1.40766)
(0 0 1.88874)
(0 0 2.20473)
(0 0 1.96505)
(0 0 2.07478)
(0 0 2.06343)
(0 0 2.21431)
(0 0 0.934332)
(0 0 0.952496)
(0 0 1.03753)
(0 0 -1.31064)
(0 0 -1.1547)
(0 0 -1.25058)
(0 0 0.901332)
(0 0 1.00809)
(0 0 0.982048)
(0 0 -1.35257)
(0 0 -1.37014)
(0 0 -1.1594)
(0 0 -1.14877)
(0 0 -1.03181)
(0 0 -1.08425)
(0 0 -1.28693)
(0 0 -1.44766)
(0 0 -1.42286)
(0 0 1.22893)
(0 0 1.39066)
(0 0 1.21493)
(0 0 -1.1245)
(0 0 -1.16358)
(0 0 -1.3005)
(0 0 1.39454)
(0 0 1.46449)
(0 0 1.36122)
(0 0 -1.18333)
(0 0 -1.02183)
(0 0 -1.13625)
(0 0 1.98454)
(0 0 1.73586)
(0 0 1.99777)
(0 0 -0.706571)
(0 0 -0.581423)
(0 0 -0.659165)
(0 0 -1.28732)
(0 0 -1.31087)
(0 0 -1.41401)
(0 0 -1.38812)
(0 0 -1.37269)
(0 0 -1.40051)
(0 0 -1.32501)
(0 0 -1.44735)
(0 0 -1.4625)
(0 0 -0.993898)
(0 0 -0.984433)
(0 0 -1.0238)
(0 0 1.23165)
(0 0 1.39659)
(0 0 1.4852)
(0 0 -1.34165)
(0 0 -1.17232)
(0 0 -1.27085)
(0 0 -1.37873)
(0 0 -1.37779)
(0 0 -1.30719)
(0 0 1.30479)
(0 0 1.27856)
(0 0 1.33068)
(0 0 -0.589606)
(0 0 -0.603928)
(0 0 -0.668707)
(0 0 -1.16074)
(0 0 -1.03681)
(0 0 -1.15063)
(0 0 1.33785)
(0 0 1.28532)
(0 0 1.41935)
(0 0 1.40917)
(0 0 1.21464)
(0 0 1.31796)
(0 0 1.3886)
(0 0 1.26221)
(0 0 1.26783)
(0 0 1.03553)
(0 0 0.975217)
(0 0 1.04856)
(0 0 2.14813)
(0 0 1.92148)
(0 0 2.19563)
(0 0 -1.34628)
(0 0 -1.19825)
(0 0 -1.35903)
(0 0 0.941031)
(0 0 0.979783)
(0 0 1.06342)
(0 0 1.38138)
(0 0 1.16916)
(0 0 1.2783)
(0 0 -1.26999)
(0 0 -1.18755)
(0 0 -1.27579)
(0 0 -1.14721)
(0 0 -1.07541)
(0 0 -1.08708)
(0 0 -1.12129)
(0 0 -1.11581)
(0 0 -1.04497)
(0 0 -0.71974)
(0 0 -0.779315)
(0 0 -0.792329)
(0 0 0.934869)
(0 0 1.02084)
(0 0 1.03222)
(0 0 -1.32926)
(0 0 -1.14413)
(0 0 -1.3208)
(0 0 -0.649078)
(0 0 -0.673875)
(0 0 -0.593796)
(0 0 0.14484)
(0 0 0.0517915)
(0 0 0.0165971)
(0 0 2.25631)
(0 0 2.24551)
(0 0 1.88653)
(0 0 -1.27513)
(0 0 -1.287)
(0 0 -1.50532)
(0 0 1.99328)
(0 0 2.33866)
(0 0 2.11345)
(0 0 0.422025)
(0 0 0.410991)
(0 0 0.362167)
(0 0 -0.713181)
(0 0 -0.699102)
(0 0 -0.589794)
(0 0 2.09849)
(0 0 1.9577)
(0 0 2.19081)
(0 0 1.37885)
(0 0 1.2812)
(0 0 1.5025)
(0 0 1.59603)
(0 0 1.48943)
(0 0 1.49787)
(0 0 -1.18885)
(0 0 -1.07392)
(0 0 -1.10099)
(0 0 -1.08398)
(0 0 -1.00817)
(0 0 -1.04947)
(0 0 1.04776)
(0 0 1.19693)
(0 0 1.13904)
(0 0 -1.3417)
(0 0 -1.23418)
(0 0 -1.14633)
(0 0 1.74452)
(0 0 1.63854)
(0 0 1.7926)
(0 0 -1.21891)
(0 0 -0.994356)
(0 0 -1.18539)
(0 0 2.25053)
(0 0 2.45859)
(0 0 2.12548)
(0 0 1.11057)
(0 0 1.06988)
(0 0 1.00861)
(0 0 -0.780462)
(0 0 -0.700788)
(0 0 -0.700455)
(0 0 -1.29375)
(0 0 -1.21323)
(0 0 -1.30191)
(0 0 -1.19501)
(0 0 -1.00869)
(0 0 -1.06843)
(0 0 -0.744334)
(0 0 -0.640403)
(0 0 -0.698578)
(0 0 2.28681)
(0 0 1.92839)
(0 0 2.22536)
(0 0 1.08337)
(0 0 1.01207)
(0 0 1.00912)
(0 0 1.23441)
(0 0 1.32149)
(0 0 1.2703)
(0 0 -1.37057)
(0 0 -1.22563)
(0 0 -1.34821)
(0 0 -1.2803)
(0 0 -1.19699)
(0 0 -1.27126)
(0 0 -1.40213)
(0 0 -1.08981)
(0 0 -1.3104)
(0 0 -1.06681)
(0 0 -1.06182)
(0 0 -1.06642)
(0 0 -1.12386)
(0 0 -1.02443)
(0 0 -1.10854)
(0 0 0.396681)
(0 0 0.385732)
(0 0 0.374087)
(0 0 1.21498)
(0 0 1.07747)
(0 0 1.07718)
(0 0 0.927158)
(0 0 1.0121)
(0 0 1.0116)
(0 0 1.23802)
(0 0 1.04473)
(0 0 1.05134)
(0 0 -1.48797)
(0 0 -1.28423)
(0 0 -1.44704)
(0 0 2.18544)
(0 0 2.38662)
(0 0 2.2042)
(0 0 0.35487)
(0 0 0.326411)
(0 0 0.35205)
(0 0 -1.1279)
(0 0 -1.27357)
(0 0 -1.1835)
(0 0 -1.30502)
(0 0 -1.28971)
(0 0 -1.21543)
(0 0 1.29452)
(0 0 1.22476)
(0 0 1.21247)
(0 0 1.25971)
(0 0 1.26718)
(0 0 1.16744)
(0 0 -0.677449)
(0 0 -0.688667)
(0 0 -0.699323)
(0 0 -1.20849)
(0 0 -1.08581)
(0 0 -1.2278)
(0 0 0.394249)
(0 0 0.320866)
(0 0 0.378839)
(0 0 1.23193)
(0 0 1.22107)
(0 0 1.26062)
(0 0 1.0602)
(0 0 1.25866)
(0 0 1.08998)
(0 0 -1.56135)
(0 0 -1.29183)
(0 0 -1.49734)
(0 0 -1.47726)
(0 0 -1.39152)
(0 0 -1.24613)
(0 0 -1.52674)
(0 0 -1.39822)
(0 0 -1.4852)
(0 0 -1.29805)
(0 0 -1.48368)
(0 0 -1.28627)
(0 0 -1.20028)
(0 0 -1.31479)
(0 0 -1.37468)
(0 0 1.03739)
(0 0 0.922522)
(0 0 0.95879)
(0 0 -1.18757)
(0 0 -1.26478)
(0 0 -1.38278)
(0 0 2.27016)
(0 0 2.11155)
(0 0 2.09098)
(0 0 -1.4821)
(0 0 -1.38082)
(0 0 -1.46023)
(0 0 -1.42702)
(0 0 -1.32229)
(0 0 -1.35506)
(0 0 2.18811)
(0 0 2.52074)
(0 0 2.29469)
(0 0 -1.29777)
(0 0 -1.10414)
(0 0 -1.209)
(0 0 -1.1489)
(0 0 -1.29907)
(0 0 -1.21339)
(0 0 0.943642)
(0 0 0.964447)
(0 0 1.01995)
(0 0 -1.45336)
(0 0 -1.56872)
(0 0 -1.71074)
(0 0 -1.4675)
(0 0 -1.45564)
(0 0 -1.36804)
(0 0 -1.18761)
(0 0 -1.26902)
(0 0 -1.14604)
(0 0 1.14924)
(0 0 1.33429)
(0 0 1.23237)
(0 0 1.2283)
(0 0 1.07309)
(0 0 1.17213)
(0 0 2.32862)
(0 0 2.20664)
(0 0 2.18078)
(0 0 -1.19699)
(0 0 -1.2433)
(0 0 -1.35464)
(0 0 -1.49953)
(0 0 -1.40418)
(0 0 -1.40242)
(0 0 2.10159)
(0 0 2.22913)
(0 0 2.01205)
(0 0 -1.3116)
(0 0 -1.24691)
(0 0 -1.27989)
(0 0 -1.21849)
(0 0 -1.28147)
(0 0 -1.41527)
(0 0 0.0640974)
(0 0 0.0764004)
(0 0 0.0420826)
(0 0 -1.26686)
(0 0 -1.07509)
(0 0 -1.21005)
(0 0 -1.24566)
(0 0 -1.28433)
(0 0 -1.3565)
(0 0 -1.64796)
(0 0 -1.43064)
(0 0 -1.56369)
(0 0 2.3307)
(0 0 1.99257)
(0 0 2.29431)
(0 0 1.19336)
(0 0 1.0807)
(0 0 1.17105)
(0 0 1.24402)
(0 0 1.22318)
(0 0 1.10659)
(0 0 0.00574168)
(0 0 0.0347314)
(0 0 0.0593826)
(0 0 -1.28367)
(0 0 -1.38514)
(0 0 -1.38178)
(0 0 -1.43298)
(0 0 -1.49441)
(0 0 -1.37881)
(0 0 -1.54368)
(0 0 -1.89325)
(0 0 -1.41852)
(0 0 1.22935)
(0 0 1.05843)
(0 0 1.14723)
(0 0 -0.58306)
(0 0 -0.659349)
(0 0 -0.666266)
(0 0 2.16956)
(0 0 1.92455)
(0 0 2.09657)
(0 0 0.925178)
(0 0 0.948838)
(0 0 1.00962)
(0 0 2.15833)
(0 0 2.44706)
(0 0 2.38723)
(0 0 -1.27727)
(0 0 -1.23337)
(0 0 -1.40635)
(0 0 -1.25612)
(0 0 -1.37361)
(0 0 -1.3084)
(0 0 1.30585)
(0 0 1.19118)
(0 0 1.14661)
(0 0 -1.34743)
(0 0 -1.53929)
(0 0 -1.3924)
(0 0 1.21382)
(0 0 1.25626)
(0 0 1.16795)
(0 0 0.885511)
(0 0 0.991208)
(0 0 1.09554)
(0 0 1.20934)
(0 0 1.11111)
(0 0 1.16637)
(0 0 -1.39712)
(0 0 -1.33922)
(0 0 -1.37084)
(0 0 0.96224)
(0 0 0.980343)
(0 0 1.07648)
(0 0 -1.37606)
(0 0 -1.35352)
(0 0 -1.56466)
(0 0 -1.4625)
(0 0 -1.4301)
(0 0 -1.4612)
(0 0 1.42629)
(0 0 1.22957)
(0 0 1.30075)
(0 0 2.18664)
(0 0 2.03634)
(0 0 2.08081)
(0 0 -1.34422)
(0 0 -1.49531)
(0 0 -1.47778)
(0 0 2.18026)
(0 0 1.86218)
(0 0 2.20898)
(0 0 2.05033)
(0 0 1.96883)
(0 0 2.02732)
(0 0 -1.37698)
(0 0 -1.30819)
(0 0 -1.32366)
(0 0 -1.4288)
(0 0 -1.20598)
(0 0 -1.34452)
(0 0 -1.33235)
(0 0 -1.38156)
(0 0 -1.32378)
(0 0 1.19611)
(0 0 1.1318)
(0 0 1.12505)
(0 0 -1.33482)
(0 0 -1.41133)
(0 0 -1.2244)
(0 0 1.3836)
(0 0 1.23015)
(0 0 1.21633)
(0 0 -1.36893)
(0 0 -1.20811)
(0 0 -1.40191)
(0 0 -1.30188)
(0 0 -1.31651)
(0 0 -1.49422)
(0 0 -1.32425)
(0 0 -1.49441)
(0 0 -1.57656)
(0 0 1.33647)
(0 0 1.41664)
(0 0 1.29132)
(0 0 2.14997)
(0 0 1.93462)
(0 0 2.10686)
(0 0 -1.26108)
(0 0 -1.32391)
(0 0 -1.46744)
(0 0 2.22972)
(0 0 1.93125)
(0 0 2.32883)
(0 0 1.15725)
(0 0 1.01404)
(0 0 1.06224)
(0 0 2.02855)
(0 0 2.13047)
(0 0 2.12791)
(0 0 -1.04817)
(0 0 -1.27271)
(0 0 -1.20033)
(0 0 -1.12623)
(0 0 -1.14461)
(0 0 -1.24528)
(0 0 0.994438)
(0 0 1.05152)
(0 0 0.996391)
(0 0 -1.01389)
(0 0 -1.15421)
(0 0 -1.08378)
(0 0 -1.05909)
(0 0 -1.29875)
(0 0 -1.18032)
(0 0 1.37063)
(0 0 1.35393)
(0 0 1.56169)
(0 0 -1.04355)
(0 0 -1.23127)
(0 0 -1.25984)
(0 0 -0.723247)
(0 0 -0.663406)
(0 0 -0.638493)
(0 0 2.04247)
(0 0 1.98518)
(0 0 1.99087)
(0 0 2.03893)
(0 0 1.90965)
(0 0 2.02316)
(0 0 1.96571)
(0 0 2.04567)
(0 0 1.97195)
(0 0 -1.18435)
(0 0 -1.21302)
(0 0 -1.24624)
(0 0 1.61164)
(0 0 1.67435)
(0 0 1.50167)
(0 0 1.86003)
(0 0 1.48784)
(0 0 1.46058)
(0 0 1.43188)
(0 0 1.427)
(0 0 1.34976)
(0 0 1.00129)
(0 0 1.00887)
(0 0 1.01083)
(0 0 1.01075)
(0 0 0.983555)
(0 0 0.996996)
(0 0 -1.16891)
(0 0 -1.01901)
(0 0 -1.00671)
(0 0 1.73581)
(0 0 1.68524)
(0 0 1.68269)
(0 0 -1.26747)
(0 0 -1.34412)
(0 0 -1.50317)
(0 0 2.0349)
(0 0 1.92441)
(0 0 2.37132)
(0 0 0.940143)
(0 0 1.00586)
(0 0 1.07722)
(0 0 -1.29889)
(0 0 -1.47257)
(0 0 -1.48714)
(0 0 -1.12543)
(0 0 -1.32613)
(0 0 -1.17796)
(0 0 1.17934)
(0 0 1.18997)
(0 0 1.21719)
(0 0 -1.08215)
(0 0 -1.21859)
(0 0 -1.12525)
(0 0 1.89692)
(0 0 1.67437)
(0 0 1.77337)
(0 0 -0.675094)
(0 0 -0.663908)
(0 0 -0.631094)
(0 0 1.90355)
(0 0 1.87959)
(0 0 1.63079)
(0 0 1.84879)
(0 0 1.72707)
(0 0 1.97502)
(0 0 -1.20562)
(0 0 -1.29673)
(0 0 -1.30689)
(0 0 -1.16236)
(0 0 -1.12212)
(0 0 -1.26081)
(0 0 -1.129)
(0 0 -1.25228)
(0 0 -1.1884)
(0 0 -1.18021)
(0 0 -1.33915)
(0 0 -1.14873)
(0 0 -1.20735)
(0 0 -1.30256)
(0 0 -1.32226)
(0 0 1.184)
(0 0 1.24451)
(0 0 1.34178)
(0 0 -1.07806)
(0 0 -1.18647)
(0 0 -1.10525)
(0 0 -1.09345)
(0 0 -1.20145)
(0 0 -1.16475)
(0 0 -0.63557)
(0 0 -0.558937)
(0 0 -0.608815)
(0 0 1.00668)
(0 0 1.01236)
(0 0 1.12845)
(0 0 -1.03094)
(0 0 -1.20007)
(0 0 -1.07336)
(0 0 -1.05935)
(0 0 -0.962791)
(0 0 -1.0153)
(0 0 -1.09747)
(0 0 -1.22941)
(0 0 -1.05093)
(0 0 -1.08226)
(0 0 -1.21792)
(0 0 -1.28587)
(0 0 1.06411)
(0 0 1.04907)
(0 0 1.05001)
(0 0 -1.24436)
(0 0 -1.32263)
(0 0 -1.27382)
(0 0 -1.04908)
(0 0 -0.95009)
(0 0 -1.07957)
(0 0 -1.11799)
(0 0 -1.14216)
(0 0 -1.0934)
(0 0 -1.10808)
(0 0 -1.08307)
(0 0 -1.01772)
(0 0 -0.994315)
(0 0 -1.16372)
(0 0 -1.07248)
(0 0 -1.05501)
(0 0 -1.09373)
(0 0 -1.08698)
(0 0 -1.07615)
(0 0 -1.11487)
(0 0 -1.06948)
(0 0 -1.17149)
(0 0 -1.28278)
(0 0 -1.19799)
(0 0 -0.667724)
(0 0 -0.648159)
(0 0 -0.670038)
(0 0 -1.03256)
(0 0 -1.20827)
(0 0 -1.15729)
(0 0 -1.11549)
(0 0 -1.18797)
(0 0 -1.29489)
(0 0 -1.09503)
(0 0 -1.08346)
(0 0 -1.07894)
(0 0 -1.06868)
(0 0 -1.08364)
(0 0 -1.01258)
(0 0 1.01256)
(0 0 0.981893)
(0 0 0.997259)
(0 0 -1.0937)
(0 0 -1.26651)
(0 0 -1.23745)
(0 0 -1.04406)
(0 0 -1.10439)
(0 0 -1.18309)
(0 0 1.97648)
(0 0 1.75174)
(0 0 1.89764)
(0 0 -1.05054)
(0 0 -1.20305)
(0 0 -1.31997)
(0 0 -1.12883)
(0 0 -1.04773)
(0 0 -1.0076)
(0 0 -1.24435)
(0 0 -1.4059)
(0 0 -1.36795)
(0 0 -1.24018)
(0 0 -1.34119)
(0 0 -1.50778)
(0 0 -1.12446)
(0 0 -1.27372)
(0 0 -1.35904)
(0 0 -1.1107)
(0 0 -1.04852)
(0 0 -1.06643)
(0 0 -1.23295)
(0 0 -1.28204)
(0 0 -1.24846)
(0 0 -0.862417)
(0 0 -0.905411)
(0 0 -0.826027)
(0 0 -1.21196)
(0 0 -1.19047)
(0 0 -1.37661)
(0 0 -1.24265)
(0 0 -1.39314)
(0 0 -1.3374)
(0 0 -1.19702)
(0 0 -1.36607)
(0 0 -1.39606)
(0 0 -1.17253)
(0 0 -1.27826)
(0 0 -1.37125)
(0 0 -1.15174)
(0 0 -1.26734)
(0 0 -1.12185)
(0 0 -1.03831)
(0 0 -0.92129)
(0 0 -1.06545)
(0 0 -1.25316)
(0 0 -1.43414)
(0 0 -1.33778)
(0 0 -1.336)
(0 0 -1.38903)
(0 0 -1.68407)
(0 0 -1.00995)
(0 0 -1.03248)
(0 0 -0.950299)
(0 0 -1.15597)
(0 0 -1.12555)
(0 0 -1.22677)
(0 0 -0.787365)
(0 0 -0.786461)
(0 0 -0.884554)
(0 0 -1.21102)
(0 0 -1.40694)
(0 0 -1.31169)
(0 0 -0.826606)
(0 0 -0.837558)
(0 0 -0.843299)
(0 0 -1.12022)
(0 0 -1.30739)
(0 0 -1.25565)
(0 0 -1.00618)
(0 0 -0.915196)
(0 0 -0.989914)
(0 0 -1.25521)
(0 0 -1.49858)
(0 0 -1.40374)
(0 0 -0.875272)
(0 0 -0.796398)
(0 0 -0.805693)
(0 0 -0.90881)
(0 0 -0.951574)
(0 0 -0.993073)
(0 0 -1.22807)
(0 0 -1.34395)
(0 0 -1.34101)
(0 0 -0.847273)
(0 0 -0.885493)
(0 0 -0.911337)
(0 0 -0.831789)
(0 0 -0.854449)
(0 0 -0.891209)
(0 0 -0.789621)
(0 0 -0.796454)
(0 0 -0.785633)
(0 0 -1.28896)
(0 0 -1.41719)
(0 0 -1.56948)
(0 0 -0.845942)
(0 0 -0.962086)
(0 0 -0.901408)
(0 0 -0.947799)
(0 0 -1.06507)
(0 0 -1.07216)
(0 0 -1.16294)
(0 0 -1.23549)
(0 0 -1.35304)
(0 0 -1.25667)
(0 0 -1.29389)
(0 0 -1.34472)
(0 0 -0.979825)
(0 0 -0.955974)
(0 0 -1.12245)
(0 0 -1.30619)
(0 0 -1.37959)
(0 0 -1.50052)
(0 0 1.92828)
(0 0 1.99194)
(0 0 1.96713)
(0 0 -1.07429)
(0 0 -1.11825)
(0 0 -1.08557)
(0 0 -1.17629)
(0 0 -1.30258)
(0 0 -1.39826)
(0 0 -0.655998)
(0 0 -0.625826)
(0 0 -0.669194)
(0 0 -1.24316)
(0 0 -1.44898)
(0 0 -1.38857)
(0 0 -1.28417)
(0 0 -1.41123)
(0 0 -1.49264)
(0 0 1.16688)
(0 0 1.39881)
(0 0 1.35089)
(0 0 -0.832557)
(0 0 -0.647696)
(0 0 -0.690303)
(0 0 -0.674961)
(0 0 -0.588106)
(0 0 -0.619724)
(0 0 -0.530617)
(0 0 -0.683089)
(0 0 -0.688998)
(0 0 -1.2283)
(0 0 -1.30801)
(0 0 -1.2692)
(0 0 -0.971079)
(0 0 -1.06134)
(0 0 -1.17535)
(0 0 -1.14587)
(0 0 -1.04351)
(0 0 -1.05101)
(0 0 -1.25084)
(0 0 -1.36262)
(0 0 -1.4313)
(0 0 -1.2073)
(0 0 -1.40798)
(0 0 -1.54717)
(0 0 -1.28056)
(0 0 -1.44557)
(0 0 -1.58321)
(0 0 -0.769533)
(0 0 -0.732353)
(0 0 -0.947323)
(0 0 -0.651897)
(0 0 -0.598977)
(0 0 -0.591355)
(0 0 -0.65543)
(0 0 -0.608572)
(0 0 -0.624758)
(0 0 -0.626246)
(0 0 -0.659276)
(0 0 -0.622558)
(0 0 -1.3122)
(0 0 -1.3451)
(0 0 -1.36418)
(0 0 -1.26506)
(0 0 -1.21765)
(0 0 -1.34055)
(0 0 -0.65656)
(0 0 -0.650626)
(0 0 -0.729136)
(0 0 -1.52298)
(0 0 -1.34592)
(0 0 -1.43245)
(0 0 7.09756)
(0 0 8.92163)
(0 0 6.3539)
(0 0 -1.21852)
(0 0 -1.27098)
(0 0 -1.3234)
(0 0 -1.22291)
(0 0 -1.35497)
(0 0 -1.36281)
(0 0 -0.890505)
(0 0 -1.02526)
(0 0 -0.901181)
(0 0 -1.22509)
(0 0 -1.33294)
(0 0 -1.35897)
(0 0 0.418291)
(0 0 0.531582)
(0 0 0.488612)
(0 0 -0.869262)
(0 0 -0.91094)
(0 0 -1.00368)
(0 0 -1.21227)
(0 0 -1.23055)
(0 0 -1.34645)
(0 0 -1.23629)
(0 0 -1.38419)
(0 0 -1.34383)
(0 0 1.74434)
(0 0 2.67333)
(0 0 3.06641)
(0 0 -1.20178)
(0 0 -1.31601)
(0 0 -1.34615)
(0 0 -1.11525)
(0 0 -1.0059)
(0 0 -1.17379)
(0 0 -1.16923)
(0 0 -0.992005)
(0 0 -1.14311)
(0 0 -1.04764)
(0 0 -1.24554)
(0 0 -1.05302)
(0 0 -0.781669)
(0 0 -0.742111)
(0 0 -0.792081)
(0 0 -1.11295)
(0 0 -1.16277)
(0 0 -1.25648)
(0 0 -0.677465)
(0 0 -0.695432)
(0 0 -0.688517)
(0 0 -1.06876)
(0 0 -1.16434)
(0 0 -1.21899)
(0 0 -0.70216)
(0 0 -0.619209)
(0 0 -0.65912)
(0 0 -1.09087)
(0 0 -1.09475)
(0 0 -1.09807)
(0 0 1.24464)
(0 0 1.16973)
(0 0 1.18776)
(0 0 -1.32581)
(0 0 -1.47205)
(0 0 -1.41741)
(0 0 -0.823211)
(0 0 -0.790508)
(0 0 -0.886171)
(0 0 -1.17566)
(0 0 -1.28742)
(0 0 -1.32221)
(0 0 -0.197211)
(0 0 -0.166575)
(0 0 -0.16167)
(0 0 -1.18199)
(0 0 -1.19976)
(0 0 -1.25623)
(0 0 -0.904531)
(0 0 -0.73635)
(0 0 -0.823536)
(0 0 -1.01802)
(0 0 -1.17806)
(0 0 -1.08669)
(0 0 -0.0489333)
(0 0 0.0244877)
(0 0 -0.0867982)
(0 0 -1.3819)
(0 0 -1.42439)
(0 0 -1.52955)
(0 0 -1.16064)
(0 0 -1.07073)
(0 0 -1.09621)
(0 0 -1.07529)
(0 0 -0.945595)
(0 0 -1.10944)
(0 0 -0.863333)
(0 0 -0.770411)
(0 0 -0.894781)
(0 0 -1.1215)
(0 0 -1.178)
(0 0 -1.25148)
(0 0 -1.11686)
(0 0 -1.17075)
(0 0 -1.24727)
(0 0 -1.1395)
(0 0 -1.12557)
(0 0 -1.10739)
(0 0 -1.21551)
(0 0 -1.3006)
(0 0 -1.37765)
(0 0 -0.846185)
(0 0 -0.870107)
(0 0 -0.846927)
(0 0 -1.12919)
(0 0 -1.20747)
(0 0 -1.30379)
(0 0 -1.25303)
(0 0 -1.2443)
(0 0 -1.48149)
(0 0 -1.13376)
(0 0 -1.27353)
(0 0 -1.35061)
(0 0 -1.19427)
(0 0 -1.29967)
(0 0 -1.38378)
(0 0 1.75589)
(0 0 1.67087)
(0 0 1.89265)
(0 0 -1.08535)
(0 0 -1.10622)
(0 0 -1.24898)
(0 0 -1.06417)
(0 0 -1.22671)
(0 0 -1.03864)
(0 0 2.1985)
(0 0 2.39664)
(0 0 1.92561)
(0 0 -0.909924)
(0 0 -1.03215)
(0 0 -1.07259)
(0 0 -1.21505)
(0 0 -1.29378)
(0 0 -1.40578)
(0 0 1.84374)
(0 0 1.9211)
(0 0 2.12542)
(0 0 -1.06734)
(0 0 -1.17533)
(0 0 -1.17784)
(0 0 -1.44456)
(0 0 -1.30729)
(0 0 -1.3478)
(0 0 -1.24029)
(0 0 -1.24505)
(0 0 -1.18059)
(0 0 -1.18065)
(0 0 -1.27349)
(0 0 -1.36926)
(0 0 -0.937618)
(0 0 -1.00872)
(0 0 -0.908599)
(0 0 -0.897924)
(0 0 -0.806616)
(0 0 -0.900891)
(0 0 -1.08955)
(0 0 -1.09984)
(0 0 -1.2137)
(0 0 -1.40099)
(0 0 -1.45857)
(0 0 -1.4007)
(0 0 -1.15214)
(0 0 -1.23627)
(0 0 -1.1999)
(0 0 -0.186596)
(0 0 -0.136304)
(0 0 -0.133759)
(0 0 -0.642796)
(0 0 -0.675159)
(0 0 -0.714111)
(0 0 -0.93502)
(0 0 -0.817753)
(0 0 -1.00942)
(0 0 -0.823319)
(0 0 -0.840439)
(0 0 -1.0248)
(0 0 -1.2094)
(0 0 -1.1025)
(0 0 -1.2461)
(0 0 -1.25753)
(0 0 -1.2436)
(0 0 -1.3185)
(0 0 -1.23778)
(0 0 -1.07093)
(0 0 -1.21086)
(0 0 -1.11526)
(0 0 -1.26301)
(0 0 -1.12271)
(0 0 -1.15341)
(0 0 -1.04075)
(0 0 -1.07989)
(0 0 0.415069)
(0 0 0.362673)
(0 0 0.370865)
(0 0 -1.16813)
(0 0 -1.22699)
(0 0 -1.15026)
(0 0 -0.756686)
(0 0 -0.959876)
(0 0 -0.945914)
(0 0 -1.15985)
(0 0 -0.999424)
(0 0 -1.15196)
(0 0 1.17478)
(0 0 1.22538)
(0 0 1.18894)
(0 0 -0.809892)
(0 0 -0.859127)
(0 0 -0.915353)
(0 0 -1.1533)
(0 0 -1.13493)
(0 0 -1.21007)
(0 0 -0.728449)
(0 0 -0.649167)
(0 0 -0.643481)
(0 0 0.411319)
(0 0 0.355797)
(0 0 0.415345)
(0 0 -0.805341)
(0 0 -0.895739)
(0 0 -0.818141)
(0 0 -1.25041)
(0 0 -1.18956)
(0 0 -1.3263)
(0 0 -1.21012)
(0 0 -1.17091)
(0 0 -1.35334)
(0 0 0.364057)
(0 0 0.39672)
(0 0 0.368263)
(0 0 -1.20234)
(0 0 -1.32422)
(0 0 -1.24056)
(0 0 -1.19528)
(0 0 -1.16225)
(0 0 -1.2245)
(0 0 -1.1415)
(0 0 -1.26966)
(0 0 -1.36471)
(0 0 -1.23726)
(0 0 -1.3328)
(0 0 -1.35046)
(0 0 -1.29247)
(0 0 -1.30782)
(0 0 -1.26108)
(0 0 -1.29021)
(0 0 -1.13572)
(0 0 -1.28633)
(0 0 -1.11575)
(0 0 -0.994173)
(0 0 -0.991563)
(0 0 1.36053)
(0 0 1.30005)
(0 0 1.37894)
(0 0 -1.13247)
(0 0 -1.08322)
(0 0 -1.21124)
(0 0 -0.937317)
(0 0 -0.919928)
(0 0 -0.899416)
(0 0 -1.27459)
(0 0 -1.33885)
(0 0 -1.39398)
(0 0 -0.944423)
(0 0 -0.942047)
(0 0 -0.948595)
(0 0 -1.17576)
(0 0 -1.2342)
(0 0 -1.14049)
(0 0 -1.17866)
(0 0 -1.08759)
(0 0 -1.22787)
(0 0 -1.17238)
(0 0 -1.28443)
(0 0 -1.22571)
(0 0 -0.965603)
(0 0 -1.08405)
(0 0 -0.995472)
(0 0 -1.2332)
(0 0 -1.28597)
(0 0 -1.3464)
(0 0 -0.877194)
(0 0 -0.933615)
(0 0 -0.837862)
(0 0 -1.29939)
(0 0 -1.14371)
(0 0 -1.33285)
(0 0 2.18388)
(0 0 1.9723)
(0 0 2.02892)
(0 0 -1.20089)
(0 0 -1.30515)
(0 0 -1.40303)
(0 0 -0.85134)
(0 0 -0.917914)
(0 0 -0.852155)
(0 0 -1.29378)
(0 0 -1.32448)
(0 0 -1.41035)
(0 0 -1.24364)
(0 0 -1.37058)
(0 0 -1.41277)
(0 0 -0.524117)
(0 0 -0.642392)
(0 0 -0.628037)
(0 0 -0.985253)
(0 0 -0.867918)
(0 0 -0.93746)
(0 0 -1.06649)
(0 0 -0.965569)
(0 0 -0.958252)
(0 0 -1.02356)
(0 0 -0.910781)
(0 0 -0.982781)
(0 0 -1.27171)
(0 0 -1.32321)
(0 0 -1.45116)
(0 0 -1.23978)
(0 0 -1.31949)
(0 0 -1.40526)
(0 0 -0.63369)
(0 0 -0.681561)
(0 0 -0.623807)
(0 0 -1.23337)
(0 0 -1.3138)
(0 0 -1.40968)
(0 0 -1.22197)
(0 0 -1.34072)
(0 0 -1.3925)
(0 0 -1.23426)
(0 0 -1.37722)
(0 0 -1.44309)
(0 0 -0.877548)
(0 0 -0.9848)
(0 0 -0.943225)
(0 0 -0.875411)
(0 0 -0.729119)
(0 0 -0.811805)
(0 0 -0.84893)
(0 0 -0.93539)
(0 0 -0.900685)
(0 0 -1.2338)
(0 0 -1.31996)
(0 0 -1.33699)
(0 0 -1.5447)
(0 0 -1.48519)
(0 0 -1.34532)
(0 0 -0.764518)
(0 0 -0.904866)
(0 0 -0.836272)
(0 0 -0.924532)
(0 0 -0.861384)
(0 0 -0.875916)
(0 0 -0.953627)
(0 0 -0.837164)
(0 0 -0.904641)
(0 0 -0.872712)
(0 0 -0.962133)
(0 0 -0.985825)
(0 0 -0.849668)
(0 0 -0.930777)
(0 0 -0.883698)
(0 0 -1.23636)
(0 0 -1.20606)
(0 0 -1.25965)
(0 0 -0.845057)
(0 0 -0.776362)
(0 0 -0.74623)
(0 0 -0.794828)
(0 0 -0.827712)
(0 0 -0.711593)
(0 0 -1.25723)
(0 0 -1.37561)
(0 0 -1.30409)
(0 0 -0.842962)
(0 0 -0.687322)
(0 0 -0.784103)
(0 0 -0.877896)
(0 0 -0.824366)
(0 0 -0.80635)
(0 0 -1.23063)
(0 0 -1.21047)
(0 0 -1.31875)
(0 0 -0.89603)
(0 0 -0.816622)
(0 0 -0.84242)
(0 0 -1.33672)
(0 0 -1.40314)
(0 0 -1.33315)
(0 0 -1.27554)
(0 0 -1.25309)
(0 0 -1.37274)
(0 0 -1.2368)
(0 0 -1.48106)
(0 0 -1.48882)
(0 0 -1.18176)
(0 0 -1.22785)
(0 0 -1.3282)
(0 0 -1.23739)
(0 0 -1.35301)
(0 0 -1.39042)
(0 0 -1.28851)
(0 0 -1.34723)
(0 0 -1.26014)
(0 0 -0.69264)
(0 0 -0.679999)
(0 0 -0.656053)
(0 0 -0.930461)
(0 0 -0.873406)
(0 0 -0.821912)
(0 0 -0.86202)
(0 0 -0.898665)
(0 0 -0.890727)
(0 0 -0.84375)
(0 0 -0.747598)
(0 0 -0.790835)
(0 0 -1.13481)
(0 0 -1.07774)
(0 0 -1.27668)
(0 0 -0.727994)
(0 0 -0.767357)
(0 0 -0.870252)
(0 0 -1.06773)
(0 0 -1.0208)
(0 0 -1.1222)
(0 0 -0.868303)
(0 0 -0.7889)
(0 0 -0.815922)
(0 0 -0.775584)
(0 0 -0.90864)
(0 0 -0.897904)
(0 0 -0.895119)
(0 0 -0.827084)
(0 0 -0.838691)
(0 0 -1.08723)
(0 0 -1.20993)
(0 0 -1.1119)
(0 0 -0.805549)
(0 0 -0.880008)
(0 0 -0.817145)
(0 0 -0.9223)
(0 0 -0.952035)
(0 0 -1.09099)
(0 0 -1.15146)
(0 0 -1.2273)
(0 0 -1.38689)
(0 0 -0.770711)
(0 0 -0.898587)
(0 0 -0.965956)
(0 0 -1.13098)
(0 0 -1.17253)
(0 0 -1.09573)
(0 0 -0.762837)
(0 0 -0.767589)
(0 0 -0.890167)
(0 0 -1.06544)
(0 0 -1.10891)
(0 0 -1.24274)
(0 0 -1.10615)
(0 0 -1.2514)
(0 0 -1.24527)
(0 0 -0.829008)
(0 0 -0.859657)
(0 0 -0.964072)
(0 0 -0.822274)
(0 0 -0.973201)
(0 0 -0.961528)
(0 0 -1.20151)
(0 0 -1.1112)
(0 0 -1.24337)
(0 0 -0.87131)
(0 0 -0.776783)
(0 0 -0.789297)
(0 0 -0.788558)
(0 0 -0.89061)
(0 0 -0.944328)
(0 0 -1.05685)
(0 0 -1.16239)
(0 0 -1.03651)
(0 0 -0.8947)
(0 0 -0.773124)
(0 0 -0.838196)
(0 0 -0.915755)
(0 0 -0.844025)
(0 0 -0.836103)
(0 0 -1.04245)
(0 0 -1.07627)
(0 0 -1.1264)
(0 0 -1.23841)
(0 0 -1.29491)
(0 0 -1.42135)
(0 0 -0.866899)
(0 0 -0.813564)
(0 0 -0.867366)
(0 0 -0.838097)
(0 0 -0.804913)
(0 0 -0.787536)
(0 0 -1.21682)
(0 0 -1.06063)
(0 0 -1.13109)
(0 0 -0.863393)
(0 0 -0.836018)
(0 0 -0.818774)
(0 0 -0.742932)
(0 0 -0.861152)
(0 0 -0.819574)
(0 0 -0.904885)
(0 0 -0.766101)
(0 0 -0.796787)
(0 0 -0.79211)
(0 0 -0.682766)
(0 0 -0.737645)
(0 0 -1.07903)
(0 0 -1.1597)
(0 0 -1.15533)
(0 0 -1.11379)
(0 0 -1.19969)
(0 0 -1.21064)
(0 0 -0.74048)
(0 0 -0.775572)
(0 0 -0.72423)
(0 0 -1.0546)
(0 0 -1.0865)
(0 0 -1.24702)
(0 0 -0.922038)
(0 0 -0.851882)
(0 0 -0.836991)
(0 0 -0.83385)
(0 0 -0.737151)
(0 0 -0.801883)
(0 0 1.92522)
(0 0 2.30087)
(0 0 2.24983)
(0 0 -1.17208)
(0 0 -1.2612)
(0 0 -1.37048)
(0 0 -0.739151)
(0 0 -0.82199)
(0 0 -0.894846)
(0 0 -1.15321)
(0 0 -1.34319)
(0 0 -1.35767)
(0 0 -0.887682)
(0 0 -0.956935)
(0 0 -0.870101)
(0 0 -0.819684)
(0 0 -0.846267)
(0 0 -0.937086)
(0 0 -0.828231)
(0 0 -0.895469)
(0 0 -0.88504)
(0 0 -1.07051)
(0 0 -1.08617)
(0 0 -1.19366)
(0 0 -0.852415)
(0 0 -0.796873)
(0 0 -0.837428)
(0 0 -0.780261)
(0 0 -0.75879)
(0 0 -0.724681)
(0 0 -0.775328)
(0 0 -0.723036)
(0 0 -0.744553)
(0 0 -0.747749)
(0 0 -0.668558)
(0 0 -0.7323)
(0 0 -0.621638)
(0 0 -0.650223)
(0 0 -0.649392)
(0 0 -0.797961)
(0 0 -0.950257)
(0 0 -0.96103)
(0 0 -0.807636)
(0 0 -0.712147)
(0 0 -0.763541)
(0 0 -0.79213)
(0 0 -0.63251)
(0 0 -0.761466)
(0 0 -1.08625)
(0 0 -1.25036)
(0 0 -1.2563)
(0 0 -1.06794)
(0 0 -1.20231)
(0 0 -1.28055)
(0 0 -1.16868)
(0 0 -1.17429)
(0 0 -1.36187)
(0 0 -0.8245)
(0 0 -0.64574)
(0 0 -0.757254)
(0 0 -0.785315)
(0 0 -0.8212)
(0 0 -0.763536)
(0 0 -1.23558)
(0 0 -1.02906)
(0 0 -1.13699)
(0 0 -1.16228)
(0 0 -1.17259)
(0 0 -1.21055)
(0 0 -1.3129)
(0 0 -1.38007)
(0 0 -1.61433)
(0 0 -1.0515)
(0 0 -1.19295)
(0 0 -1.08143)
(0 0 -1.05676)
(0 0 -1.08293)
(0 0 -1.21877)
(0 0 -1.12173)
(0 0 -1.21489)
(0 0 -1.22694)
(0 0 -1.52631)
(0 0 -1.26961)
(0 0 -1.45955)
(0 0 -1.01605)
(0 0 -1.11693)
(0 0 -1.21262)
(0 0 -0.80842)
(0 0 -0.896543)
(0 0 -0.901459)
(0 0 -1.19916)
(0 0 -1.11593)
(0 0 -1.26737)
(0 0 -0.834702)
(0 0 -0.754866)
(0 0 -0.749943)
(0 0 -1.11784)
(0 0 -1.27363)
(0 0 -1.30844)
(0 0 -0.77624)
(0 0 -0.818853)
(0 0 -0.705246)
(0 0 -0.69772)
(0 0 -0.839996)
(0 0 -0.791613)
(0 0 -1.04637)
(0 0 -1.19612)
(0 0 -1.35189)
(0 0 -1.24195)
(0 0 -1.20154)
(0 0 -1.39212)
(0 0 -1.32242)
(0 0 -1.14268)
(0 0 -1.26081)
(0 0 -1.2554)
(0 0 -1.22393)
(0 0 -1.31913)
(0 0 -1.1732)
(0 0 -1.38306)
(0 0 -1.28685)
(0 0 -1.16108)
(0 0 -1.34848)
(0 0 -1.28974)
(0 0 -1.1511)
(0 0 -1.24937)
(0 0 -1.26329)
(0 0 1.17872)
(0 0 1.19223)
(0 0 1.1304)
(0 0 -0.775776)
(0 0 -0.719133)
(0 0 -0.854107)
(0 0 -1.09778)
(0 0 -1.16748)
(0 0 -1.23099)
(0 0 -1.19627)
(0 0 -1.33549)
(0 0 -1.40779)
(0 0 -0.740341)
(0 0 -0.671923)
(0 0 -0.753162)
(0 0 -0.837833)
(0 0 -0.810464)
(0 0 -0.938738)
(0 0 -0.814734)
(0 0 -0.797049)
(0 0 -0.795991)
(0 0 -0.914759)
(0 0 -0.853364)
(0 0 -0.853507)
(0 0 -1.25749)
(0 0 -1.3169)
(0 0 -1.4432)
(0 0 -0.80239)
(0 0 -0.909814)
(0 0 -0.900528)
(0 0 -1.35161)
(0 0 -1.40096)
(0 0 -1.53632)
(0 0 -0.777674)
(0 0 -0.812504)
(0 0 -0.951823)
(0 0 -0.775036)
(0 0 -0.837353)
(0 0 -0.751106)
(0 0 -0.761345)
(0 0 -0.820315)
(0 0 -0.796914)
(0 0 -1.23176)
(0 0 -1.2858)
(0 0 -1.44566)
(0 0 -0.741739)
(0 0 -0.872684)
(0 0 -0.798052)
(0 0 -1.23503)
(0 0 -1.42679)
(0 0 -1.42415)
(0 0 -0.641386)
(0 0 -0.603391)
(0 0 -0.629709)
(0 0 -1.25254)
(0 0 -1.3703)
(0 0 -1.29525)
(0 0 -0.764655)
(0 0 -0.869067)
(0 0 -0.871106)
(0 0 -0.831739)
(0 0 -0.797784)
(0 0 -0.90113)
(0 0 -1.19335)
(0 0 -1.34234)
(0 0 -1.47112)
(0 0 -0.60404)
(0 0 -0.685553)
(0 0 -0.610609)
(0 0 2.11122)
(0 0 1.88668)
(0 0 2.00531)
(0 0 -1.23529)
(0 0 -1.31378)
(0 0 -1.43022)
(0 0 -0.602798)
(0 0 -0.62737)
(0 0 -0.591418)
(0 0 -1.21858)
(0 0 -1.36556)
(0 0 -1.40989)
(0 0 -0.891986)
(0 0 -0.824988)
(0 0 -0.756163)
(0 0 0.112076)
(0 0 0.179879)
(0 0 0.189188)
(0 0 -1.22901)
(0 0 -1.32161)
(0 0 -1.45337)
(0 0 -0.851372)
(0 0 -0.701294)
(0 0 -0.778682)
(0 0 -0.909363)
(0 0 -0.880178)
(0 0 -0.850894)
(0 0 -1.26454)
(0 0 -1.31425)
(0 0 -1.43999)
(0 0 -0.815314)
(0 0 -0.726106)
(0 0 -0.752471)
(0 0 -1.21167)
(0 0 -1.37468)
(0 0 -1.4096)
(0 0 -1.2275)
(0 0 -1.29844)
(0 0 -1.42256)
(0 0 -0.673209)
(0 0 -0.641048)
(0 0 -0.601418)
(0 0 -0.771915)
(0 0 -0.83477)
(0 0 -0.772283)
(0 0 -0.600525)
(0 0 -0.594818)
(0 0 -0.622582)
(0 0 -0.826676)
(0 0 -0.829232)
(0 0 -0.816369)
(0 0 -0.788377)
(0 0 -0.817361)
(0 0 -0.863343)
(0 0 -1.28391)
(0 0 -1.2769)
(0 0 -1.39938)
(0 0 -1.28025)
(0 0 -1.4655)
(0 0 -1.35673)
(0 0 -0.781666)
(0 0 -0.788491)
(0 0 -0.937494)
(0 0 -0.793845)
(0 0 -0.833455)
(0 0 -0.902439)
(0 0 -1.23137)
(0 0 -1.21687)
(0 0 -1.35711)
(0 0 -0.811491)
(0 0 -0.836871)
(0 0 -0.901054)
(0 0 -0.819759)
(0 0 -0.83649)
(0 0 -0.803282)
(0 0 -0.919895)
(0 0 -0.934397)
(0 0 -0.834104)
(0 0 -1.25002)
(0 0 -1.35295)
(0 0 -1.38786)
(0 0 -0.786563)
(0 0 -0.806279)
(0 0 -0.717424)
(0 0 -0.772934)
(0 0 -0.907031)
(0 0 -0.799846)
(0 0 -0.894119)
(0 0 -0.896718)
(0 0 -0.851626)
(0 0 -0.793011)
(0 0 -0.842569)
(0 0 -0.830477)
(0 0 -0.752013)
(0 0 -0.886393)
(0 0 -0.931017)
(0 0 -0.797183)
(0 0 -0.872921)
(0 0 -0.790468)
(0 0 -0.812314)
(0 0 -0.866387)
(0 0 -0.847153)
(0 0 -0.782491)
(0 0 -0.814388)
(0 0 -0.877628)
(0 0 -0.762782)
(0 0 -0.875098)
(0 0 -0.8623)
(0 0 -1.28612)
(0 0 -1.24093)
(0 0 -1.45617)
(0 0 -0.887395)
(0 0 -0.718621)
(0 0 -0.845217)
(0 0 -1.29399)
(0 0 -1.26488)
(0 0 -1.47218)
(0 0 -1.26276)
(0 0 -1.4578)
(0 0 -1.48027)
(0 0 -0.816148)
(0 0 -0.879106)
(0 0 -0.821701)
(0 0 -1.30823)
(0 0 -1.43785)
(0 0 -1.37487)
(0 0 -0.764547)
(0 0 -0.816398)
(0 0 -0.902371)
(0 0 -1.25253)
(0 0 -1.29876)
(0 0 -1.40028)
(0 0 -0.737192)
(0 0 -0.813931)
(0 0 -0.785064)
(0 0 -1.26595)