# Region type :   patch inlet
# Faces           : 12
# Area            : 4.1680000000e-05
# Scale factor    : 1.0000000000e+00
# Time            	sum(phi)
0                 	-7.8242468997e-21
0.001             	-1.3093984589e-11
0.002             	-5.2373870662e-11
0.003             	-1.1783345547e-10
0.004             	-2.0946240219e-10
0.005             	-3.2724624155e-10
0.006             	-4.7116637412e-10
0.007             	-6.4120007324e-10
0.008             	-8.3732048862e-10
0.009             	-1.0594966506e-09
0.01              	-1.3076934749e-09
0.011             	-1.5818717685e-09
0.012             	-1.8819882354e-09
0.013             	-2.2079954838e-09
0.014             	-2.5598420332e-09
0.015             	-2.9374723232e-09
0.016             	-3.3408267215e-09
0.017             	-3.7698415337e-09
0.018             	-4.2244490134e-09
0.019             	-4.7045773730e-09
0.02              	-5.2101507945e-09
0.021             	-5.7410894420e-09
0.022             	-6.2973094742e-09
0.023             	-6.8787230575e-09
0.024             	-7.4852383801e-09
0.025             	-8.1167596659e-09
0.026             	-8.7731871907e-09
0.027             	-9.4544172968e-09
0.028             	-1.0160342410e-08
0.029             	-1.0890851057e-08
0.03              	-1.1645827881e-08
0.031             	-1.2425153664e-08
0.032             	-1.3228705340e-08
0.033             	-1.4056356020e-08
0.034             	-1.4907975008e-08
0.035             	-1.5783427822e-08
0.036             	-1.6682576220e-08
0.037             	-1.7605278216e-08
0.038             	-1.8551388103e-08
0.039             	-1.9520756480e-08
0.04              	-2.0513230274e-08
0.041             	-2.1528652760e-08
0.042             	-2.2566863591e-08
0.043             	-2.3627698823e-08
0.044             	-2.4710990936e-08
0.045             	-2.5816568868e-08
0.046             	-2.6944258033e-08
0.047             	-2.8093880357e-08
0.048             	-2.9265254302e-08
0.049             	-3.0458194893e-08
0.05              	-3.1672513752e-08
0.051             	-3.2908019123e-08
0.052             	-3.4164515907e-08
0.053             	-3.5441805687e-08
0.054             	-3.6739686764e-08
0.055             	-3.8057954189e-08
0.056             	-3.9396399792e-08
0.057             	-4.0754812216e-08
0.058             	-4.2132976953e-08
0.059             	-4.3530676374e-08
0.06              	-4.4947689767e-08
0.061             	-4.6383793368e-08
0.062             	-4.7838760400e-08
0.063             	-4.9312361108e-08
0.064             	-5.0804362791e-08
0.065             	-5.2314529847e-08
0.066             	-5.3842623803e-08
0.067             	-5.5388403354e-08
0.068             	-5.6951624403e-08
0.069             	-5.8532040102e-08
0.07              	-6.0129400882e-08
0.071             	-6.1743454504e-08
0.072             	-6.3373946088e-08
0.073             	-6.5020618162e-08
0.074             	-6.6683210696e-08
0.075             	-6.8361461149e-08
0.076             	-7.0055104505e-08
0.077             	-7.1763873318e-08
0.078             	-7.3487497753e-08
0.079             	-7.5225705632e-08
0.08              	-7.6978222469e-08
0.081             	-7.8744771523e-08
0.082             	-8.0525073836e-08
0.083             	-8.2318848276e-08
0.084             	-8.4125811586e-08
0.085             	-8.5945678426e-08
0.086             	-8.7778161418e-08
0.087             	-8.9622971190e-08
0.088             	-9.1479816427e-08
0.089             	-9.3348403912e-08
0.09              	-9.5228438571e-08
0.091             	-9.7119623528e-08
0.092             	-9.9021660140e-08
0.093             	-1.0093424805e-07
0.094             	-1.0285708525e-07
0.095             	-1.0478986810e-07
0.096             	-1.0673229137e-07
0.097             	-1.0868404836e-07
0.098             	-1.1064483084e-07
0.099             	-1.1261432919e-07
0.1               	-1.1459223241e-07
0.101             	-1.1657822815e-07
0.102             	-1.1857200281e-07
0.103             	-1.2057324155e-07
0.104             	-1.2258162835e-07
0.105             	-1.2459684606e-07
0.106             	-1.2661857645e-07
0.107             	-1.2864650027e-07
0.108             	-1.3068029729e-07
0.109             	-1.3271964635e-07
0.11              	-1.3476422541e-07
0.111             	-1.3681371161e-07
0.112             	-1.3886778130e-07
0.113             	-1.4092611014e-07
0.114             	-1.4298837308e-07
0.115             	-1.4505424447e-07
0.116             	-1.4712339808e-07
0.117             	-1.4919550718e-07
0.118             	-1.5127024455e-07
0.119             	-1.5334728256e-07
0.12              	-1.5542629323e-07
0.121             	-1.5750694826e-07
0.122             	-1.5958891909e-07
0.123             	-1.6167187695e-07
0.124             	-1.6375549292e-07
0.125             	-1.6583943797e-07
0.126             	-1.6792338302e-07
0.127             	-1.7000699899e-07
0.128             	-1.7208995686e-07
0.129             	-1.7417192770e-07
0.13              	-1.7625258275e-07
0.131             	-1.7833159344e-07
0.132             	-1.8040863148e-07
0.133             	-1.8248336888e-07
0.134             	-1.8455547801e-07
0.135             	-1.8662463166e-07
0.136             	-1.8869050310e-07
0.137             	-1.9075276608e-07
0.138             	-1.9281109497e-07
0.139             	-1.9486516472e-07
0.14              	-1.9691465097e-07
0.141             	-1.9895923009e-07
0.142             	-2.0099857922e-07
0.143             	-2.0303237631e-07
0.144             	-2.0506030020e-07
0.145             	-2.0708203068e-07
0.146             	-2.0909724846e-07
0.147             	-2.1110563535e-07
0.148             	-2.1310687418e-07
0.149             	-2.1510064893e-07
0.15              	-2.1708664477e-07
0.151             	-2.1906454809e-07
0.152             	-2.2103404654e-07
0.153             	-2.2299482914e-07
0.154             	-2.2494658623e-07
0.155             	-2.2688900963e-07
0.156             	-2.2882179259e-07
0.157             	-2.3074462991e-07
0.158             	-2.3265721795e-07
0.159             	-2.3455925469e-07
0.16              	-2.3645043978e-07
0.161             	-2.3833047458e-07
0.162             	-2.4019906221e-07
0.163             	-2.4205590759e-07
0.164             	-2.4390071751e-07
0.165             	-2.4573320066e-07
0.166             	-2.4755306765e-07
0.167             	-2.4936003112e-07
0.168             	-2.5115380573e-07
0.169             	-2.5293410820e-07
0.17              	-2.5470065743e-07
0.171             	-2.5645317444e-07
0.172             	-2.5819138249e-07
0.173             	-2.5991500711e-07
0.174             	-2.6162377611e-07
0.175             	-2.6331741965e-07
0.176             	-2.6499567029e-07
0.177             	-2.6665826302e-07
0.178             	-2.6830493529e-07
0.179             	-2.6993542707e-07
0.18              	-2.7154948090e-07
0.181             	-2.7314684188e-07
0.182             	-2.7472725779e-07
0.183             	-2.7629047905e-07
0.184             	-2.7783625882e-07
0.185             	-2.7936435299e-07
0.186             	-2.8087452026e-07
0.187             	-2.8236652217e-07
0.188             	-2.8384012311e-07
0.189             	-2.8529509037e-07
0.19              	-2.8673119420e-07
0.191             	-2.8814820783e-07
0.192             	-2.8954590749e-07
0.193             	-2.9092407246e-07
0.194             	-2.9228248513e-07
0.195             	-2.9362093098e-07
0.196             	-2.9493919865e-07
0.197             	-2.9623707998e-07
0.198             	-2.9751437001e-07
0.199             	-2.9877086705e-07
0.2               	-3.0000637268e-07
0.201             	-3.0122069180e-07
0.202             	-3.0241363265e-07
0.203             	-3.0358500686e-07
0.204             	-3.0473462945e-07
0.205             	-3.0586231889e-07
0.206             	-3.0696789709e-07
0.207             	-3.0805118948e-07
0.208             	-3.0911202498e-07
0.209             	-3.1015023609e-07
0.21              	-3.1116565886e-07
0.211             	-3.1215813293e-07
0.212             	-3.1312750159e-07
0.213             	-3.1407361177e-07
0.214             	-3.1499631405e-07
0.215             	-3.1589546274e-07
0.216             	-3.1677091584e-07
0.217             	-3.1762253512e-07
0.218             	-3.1845018609e-07
0.219             	-3.1925373807e-07
0.22              	-3.2003306415e-07
0.221             	-3.2078804127e-07
0.222             	-3.2151855021e-07
0.223             	-3.2222447563e-07
0.224             	-3.2290570604e-07
0.225             	-3.2356213387e-07
0.226             	-3.2419365546e-07
0.227             	-3.2480017109e-07
0.228             	-3.2538158498e-07
0.229             	-3.2593780532e-07
0.23              	-3.2646874427e-07
0.231             	-3.2697431801e-07
0.232             	-3.2745444668e-07
0.233             	-3.2790905447e-07
0.234             	-3.2833806960e-07
0.235             	-3.2874142431e-07
0.236             	-3.2911905491e-07
0.237             	-3.2947090178e-07
0.238             	-3.2979690934e-07
0.239             	-3.3009702613e-07
0.24              	-3.3037120474e-07
0.241             	-3.3061940188e-07
0.242             	-3.3084157836e-07
0.243             	-3.3103769909e-07
0.244             	-3.3120773311e-07
0.245             	-3.3135165356e-07
0.246             	-3.3146943772e-07
0.247             	-3.3156106699e-07
0.248             	-3.3162652689e-07
0.249             	-3.3166580710e-07
0.25              	-3.3167890140e-07
0.251             	-3.3166580774e-07
0.252             	-3.3162652817e-07
0.253             	-3.3156106891e-07
0.254             	-3.3146944028e-07
0.255             	-3.3135165676e-07
0.256             	-3.3120773695e-07
0.257             	-3.3103770357e-07
0.258             	-3.3084158347e-07
0.259             	-3.3061940763e-07
0.26              	-3.3037121112e-07
0.261             	-3.3009703314e-07
0.262             	-3.2979691699e-07
0.263             	-3.2947091006e-07
0.264             	-3.2911906383e-07
0.265             	-3.2874143385e-07
0.266             	-3.2833807977e-07
0.267             	-3.2790906527e-07
0.268             	-3.2745445810e-07
0.269             	-3.2697433005e-07
0.27              	-3.2646875694e-07
0.271             	-3.2593781861e-07
0.272             	-3.2538159888e-07
0.273             	-3.2480018561e-07
0.274             	-3.2419367059e-07
0.275             	-3.2356214961e-07
0.276             	-3.2290572239e-07
0.277             	-3.2222449258e-07
0.278             	-3.2151856777e-07
0.279             	-3.2078805942e-07
0.28              	-3.2003308290e-07
0.281             	-3.1925375741e-07
0.282             	-3.1845020603e-07
0.283             	-3.1762255565e-07
0.284             	-3.1677093695e-07
0.285             	-3.1589548443e-07
0.286             	-3.1499633632e-07
0.287             	-3.1407363461e-07
0.288             	-3.1312752501e-07
0.289             	-3.1215815691e-07
0.29              	-3.1116568340e-07
0.291             	-3.1015026119e-07
0.292             	-3.0911205064e-07
0.293             	-3.0805121568e-07
0.294             	-3.0696792384e-07
0.295             	-3.0586234618e-07
0.296             	-3.0473465729e-07
0.297             	-3.0358503523e-07
0.298             	-3.0241366155e-07
0.299             	-3.0122072122e-07
0.3               	-3.0000640262e-07
0.301             	-2.9877089751e-07
0.302             	-2.9751440098e-07
0.303             	-2.9623711145e-07
0.304             	-2.9493923063e-07
0.305             	-2.9362096345e-07
0.306             	-2.9228251809e-07
0.307             	-2.9092410591e-07
0.308             	-2.8954594141e-07
0.309             	-2.8814824223e-07
0.31              	-2.8673122907e-07
0.311             	-2.8529512570e-07
0.312             	-2.8384015890e-07
0.313             	-2.8236655842e-07
0.314             	-2.8087455696e-07
0.315             	-2.7936439012e-07
0.316             	-2.7783629639e-07
0.317             	-2.7629051705e-07
0.318             	-2.7472729621e-07
0.319             	-2.7314688072e-07
0.32              	-2.7154952015e-07
0.321             	-2.6993546673e-07
0.322             	-2.6830497534e-07
0.323             	-2.6665830347e-07
0.324             	-2.6499571112e-07
0.325             	-2.6331746086e-07
0.326             	-2.6162381769e-07
0.327             	-2.5991504906e-07
0.328             	-2.5819142481e-07
0.329             	-2.5645321710e-07
0.33              	-2.5470070044e-07
0.331             	-2.5293415156e-07
0.332             	-2.5115384941e-07
0.333             	-2.4936007513e-07
0.334             	-2.4755311198e-07
0.335             	-2.4573324530e-07
0.336             	-2.4390076246e-07
0.337             	-2.4205595284e-07
0.338             	-2.4019910774e-07
0.339             	-2.3833052040e-07
0.34              	-2.3645048588e-07
0.341             	-2.3455930106e-07
0.342             	-2.3265726458e-07
0.343             	-2.3074467679e-07
0.344             	-2.2882183971e-07
0.345             	-2.2688905699e-07
0.346             	-2.2494663383e-07
0.347             	-2.2299487696e-07
0.348             	-2.2103409458e-07
0.349             	-2.1906459634e-07
0.35              	-2.1708669322e-07
0.351             	-2.1510069757e-07
0.352             	-2.1310692301e-07
0.353             	-2.1110568436e-07
0.354             	-2.0909729764e-07
0.355             	-2.0708208002e-07
0.356             	-2.0506034970e-07
0.357             	-2.0303242595e-07
0.358             	-2.0099862900e-07
0.359             	-1.9895928001e-07
0.36              	-1.9691470101e-07
0.361             	-1.9486521488e-07
0.362             	-1.9281114523e-07
0.363             	-1.9075281645e-07
0.364             	-1.8869055355e-07
0.365             	-1.8662468221e-07
0.366             	-1.8455552863e-07
0.367             	-1.8248341957e-07
0.368             	-1.8040868223e-07
0.369             	-1.7833164424e-07
0.37              	-1.7625263359e-07
0.371             	-1.7417197858e-07
0.372             	-1.7209000777e-07
0.373             	-1.7000704992e-07
0.374             	-1.6792343396e-07
0.375             	-1.6583948891e-07
0.376             	-1.6375554386e-07
0.377             	-1.6167192788e-07
0.378             	-1.5958897000e-07
0.379             	-1.5750699914e-07
0.38              	-1.5542634407e-07
0.381             	-1.5334733336e-07
0.382             	-1.5127029529e-07
0.383             	-1.4919555786e-07
0.384             	-1.4712344870e-07
0.385             	-1.4505429501e-07
0.386             	-1.4298842354e-07
0.387             	-1.4092616050e-07
0.388             	-1.3886783157e-07
0.389             	-1.3681376176e-07
0.39              	-1.3476427545e-07
0.391             	-1.3271969627e-07
0.392             	-1.3068034708e-07
0.393             	-1.2864654992e-07
0.394             	-1.2661862595e-07
0.395             	-1.2459689540e-07
0.396             	-1.2258167753e-07
0.397             	-1.2057329056e-07
0.398             	-1.1857205164e-07
0.399             	-1.1657827679e-07
0.4               	-1.1459228086e-07
0.401             	-1.1261437744e-07
0.402             	-1.1064487888e-07
0.403             	-1.0868409618e-07
0.404             	-1.0673233897e-07
0.405             	-1.0478991546e-07
0.406             	-1.0285713238e-07
0.407             	-1.0093429493e-07
0.408             	-9.9021706765e-08
0.409             	-9.7119669891e-08
0.41              	-9.5228484666e-08
0.411             	-9.3348449730e-08
0.412             	-9.1479861962e-08
0.413             	-8.9623016434e-08
0.414             	-8.7778206364e-08
0.415             	-8.5945723067e-08
0.416             	-8.4125855916e-08
0.417             	-8.2318892287e-08
0.418             	-8.0525117520e-08
0.419             	-7.8744814875e-08
0.42              	-7.6978265481e-08
0.421             	-7.5225748297e-08
0.422             	-7.3487540066e-08
0.423             	-7.1763915270e-08
0.424             	-7.0055146091e-08
0.425             	-6.8361502362e-08
0.426             	-6.6683251530e-08
0.427             	-6.5020658610e-08
0.428             	-6.3373986144e-08
0.429             	-6.1743494161e-08
0.43              	-6.0129440134e-08
0.431             	-5.8532078942e-08
0.432             	-5.6951662827e-08
0.433             	-5.5388441354e-08
0.434             	-5.3842661374e-08
0.435             	-5.2314566983e-08
0.436             	-5.0804399486e-08
0.437             	-4.9312397355e-08
0.438             	-4.7838796195e-08
0.439             	-4.6383828704e-08
0.44              	-4.4947724639e-08
0.441             	-4.3530710777e-08
0.442             	-4.2133010881e-08
0.443             	-4.0754845664e-08
0.444             	-3.9396432755e-08
0.445             	-3.8057986661e-08
0.446             	-3.6739718741e-08
0.447             	-3.5441837162e-08
0.448             	-3.4164546876e-08
0.449             	-3.2908049582e-08
0.45              	-3.1672543695e-08
0.451             	-3.0458224316e-08
0.452             	-2.9265283200e-08
0.453             	-2.8093908726e-08
0.454             	-2.6944285868e-08
0.455             	-2.5816596164e-08
0.456             	-2.4711017690e-08
0.457             	-2.3627725030e-08
0.458             	-2.2566889247e-08
0.459             	-2.1528677860e-08
0.46              	-2.0513254815e-08
0.461             	-1.9520780459e-08
0.462             	-1.8551411515e-08
0.463             	-1.7605301058e-08
0.464             	-1.6682598488e-08
0.465             	-1.5783449513e-08
0.466             	-1.4907996117e-08
0.467             	-1.4056376545e-08
0.468             	-1.3228725278e-08
0.469             	-1.2425173011e-08
0.47              	-1.1645846635e-08
0.471             	-1.0890869213e-08
0.472             	-1.0160359967e-08
0.473             	-9.4544342514e-09
0.474             	-8.7732035404e-09
0.475             	-8.1167754080e-09
0.476             	-7.4852535121e-09
0.477             	-6.8787375771e-09
0.478             	-6.2973233791e-09
0.479             	-5.7411027299e-09
0.48              	-5.2101634633e-09
0.481             	-4.7045894208e-09
0.482             	-4.2244604384e-09
0.483             	-3.7698523338e-09
0.484             	-3.3408368952e-09
0.485             	-2.9374818689e-09
0.486             	-2.5598509494e-09
0.487             	-2.2080037689e-09
0.488             	-1.8819958883e-09
0.489             	-1.5818787879e-09
0.49              	-1.3076998597e-09
0.491             	-1.0595023998e-09
0.492             	-8.3732560130e-10
0.493             	-6.4120454861e-10
0.494             	-4.7117021146e-10
0.495             	-3.2724944027e-10
0.496             	-2.0946496177e-10
0.497             	-1.1783537551e-10
0.498             	-5.2375150860e-11
0.499             	-1.3094624742e-11
0.5               	-7.8242468987e-21
